V -t * -v 1.0a5 -a 0
A -t * -n 1 -p 0 -o 0x7fffffff -c 30 -a 1
A -t * -h 1 -m 1073741823 -s 0
c -t * -i 1 -n Green
c -t * -i 2 -n Pink
n -t * -a 4 -s 4 -S UP -v circle -c black -i black
n -t * -a 0 -s 0 -S UP -v circle -c black -i black
n -t * -a 1 -s 1 -S UP -v circle -c black -i black
n -t * -a 2 -s 2 -S UP -v circle -c black -i black
n -t * -a 3 -s 3 -S UP -v circle -c black -i black
l -t * -s 0 -d 1 -S UP -r 5000000 -D 0.01 -c black -o right
l -t * -s 1 -d 2 -S UP -r 500000 -D 0.02 -c black -o right
l -t * -s 1 -d 3 -S UP -r 5000000 -D 0.01 -c black -o up
l -t * -s 1 -d 4 -S UP -r 500000 -D 0.02 -c black -o down
+ -t 0 -s 0 -d 1 -p tcp -e 40 -c 2 -i 0 -a 2 -x {0.0 2.0 0 ------- null}
- -t 0 -s 0 -d 1 -p tcp -e 40 -c 2 -i 0 -a 2 -x {0.0 2.0 0 ------- null}
h -t 0 -s 0 -d 1 -p tcp -e 40 -c 2 -i 0 -a 2 -x {0.0 2.0 -1 ------- null}
r -t 0.010064 -s 0 -d 1 -p tcp -e 40 -c 2 -i 0 -a 2 -x {0.0 2.0 0 ------- null}
+ -t 0.010064 -s 1 -d 2 -p tcp -e 40 -c 2 -i 0 -a 2 -x {0.0 2.0 0 ------- null}
- -t 0.010064 -s 1 -d 2 -p tcp -e 40 -c 2 -i 0 -a 2 -x {0.0 2.0 0 ------- null}
h -t 0.010064 -s 1 -d 2 -p tcp -e 40 -c 2 -i 0 -a 2 -x {0.0 2.0 -1 ------- null}
r -t 0.030704 -s 1 -d 2 -p tcp -e 40 -c 2 -i 0 -a 2 -x {0.0 2.0 0 ------- null}
+ -t 0.030704 -s 2 -d 1 -p ack -e 40 -c 2 -i 1 -a 2 -x {2.0 0.0 0 ------- null}
- -t 0.030704 -s 2 -d 1 -p ack -e 40 -c 2 -i 1 -a 2 -x {2.0 0.0 0 ------- null}
h -t 0.030704 -s 2 -d 1 -p ack -e 40 -c 2 -i 1 -a 2 -x {2.0 0.0 -1 ------- null}
r -t 0.051344 -s 2 -d 1 -p ack -e 40 -c 2 -i 1 -a 2 -x {2.0 0.0 0 ------- null}
+ -t 0.051344 -s 1 -d 0 -p ack -e 40 -c 2 -i 1 -a 2 -x {2.0 0.0 0 ------- null}
- -t 0.051344 -s 1 -d 0 -p ack -e 40 -c 2 -i 1 -a 2 -x {2.0 0.0 0 ------- null}
h -t 0.051344 -s 1 -d 0 -p ack -e 40 -c 2 -i 1 -a 2 -x {2.0 0.0 -1 ------- null}
r -t 0.061408 -s 1 -d 0 -p ack -e 40 -c 2 -i 1 -a 2 -x {2.0 0.0 0 ------- null}
+ -t 0.061408 -s 0 -d 1 -p tcp -e 1040 -c 2 -i 2 -a 2 -x {0.0 2.0 1 ------- null}
- -t 0.061408 -s 0 -d 1 -p tcp -e 1040 -c 2 -i 2 -a 2 -x {0.0 2.0 1 ------- null}
h -t 0.061408 -s 0 -d 1 -p tcp -e 1040 -c 2 -i 2 -a 2 -x {0.0 2.0 -1 ------- null}
+ -t 0.061408 -s 0 -d 1 -p tcp -e 1040 -c 2 -i 3 -a 2 -x {0.0 2.0 2 ------- null}
- -t 0.063072 -s 0 -d 1 -p tcp -e 1040 -c 2 -i 3 -a 2 -x {0.0 2.0 2 ------- null}
h -t 0.063072 -s 0 -d 1 -p tcp -e 1040 -c 2 -i 3 -a 2 -x {0.0 2.0 -1 ------- null}
r -t 0.073072 -s 0 -d 1 -p tcp -e 1040 -c 2 -i 2 -a 2 -x {0.0 2.0 1 ------- null}
+ -t 0.073072 -s 1 -d 2 -p tcp -e 1040 -c 2 -i 2 -a 2 -x {0.0 2.0 1 ------- null}
- -t 0.073072 -s 1 -d 2 -p tcp -e 1040 -c 2 -i 2 -a 2 -x {0.0 2.0 1 ------- null}
h -t 0.073072 -s 1 -d 2 -p tcp -e 1040 -c 2 -i 2 -a 2 -x {0.0 2.0 -1 ------- null}
r -t 0.074736 -s 0 -d 1 -p tcp -e 1040 -c 2 -i 3 -a 2 -x {0.0 2.0 2 ------- null}
+ -t 0.074736 -s 1 -d 2 -p tcp -e 1040 -c 2 -i 3 -a 2 -x {0.0 2.0 2 ------- null}
- -t 0.089712 -s 1 -d 2 -p tcp -e 1040 -c 2 -i 3 -a 2 -x {0.0 2.0 2 ------- null}
h -t 0.089712 -s 1 -d 2 -p tcp -e 1040 -c 2 -i 3 -a 2 -x {0.0 2.0 -1 ------- null}
r -t 0.109712 -s 1 -d 2 -p tcp -e 1040 -c 2 -i 2 -a 2 -x {0.0 2.0 1 ------- null}
+ -t 0.109712 -s 2 -d 1 -p ack -e 40 -c 2 -i 4 -a 2 -x {2.0 0.0 1 ------- null}
- -t 0.109712 -s 2 -d 1 -p ack -e 40 -c 2 -i 4 -a 2 -x {2.0 0.0 1 ------- null}
h -t 0.109712 -s 2 -d 1 -p ack -e 40 -c 2 -i 4 -a 2 -x {2.0 0.0 -1 ------- null}
r -t 0.126352 -s 1 -d 2 -p tcp -e 1040 -c 2 -i 3 -a 2 -x {0.0 2.0 2 ------- null}
+ -t 0.126352 -s 2 -d 1 -p ack -e 40 -c 2 -i 5 -a 2 -x {2.0 0.0 2 ------- null}
- -t 0.126352 -s 2 -d 1 -p ack -e 40 -c 2 -i 5 -a 2 -x {2.0 0.0 2 ------- null}
h -t 0.126352 -s 2 -d 1 -p ack -e 40 -c 2 -i 5 -a 2 -x {2.0 0.0 -1 ------- null}
r -t 0.130352 -s 2 -d 1 -p ack -e 40 -c 2 -i 4 -a 2 -x {2.0 0.0 1 ------- null}
+ -t 0.130352 -s 1 -d 0 -p ack -e 40 -c 2 -i 4 -a 2 -x {2.0 0.0 1 ------- null}
- -t 0.130352 -s 1 -d 0 -p ack -e 40 -c 2 -i 4 -a 2 -x {2.0 0.0 1 ------- null}
h -t 0.130352 -s 1 -d 0 -p ack -e 40 -c 2 -i 4 -a 2 -x {2.0 0.0 -1 ------- null}
r -t 0.140416 -s 1 -d 0 -p ack -e 40 -c 2 -i 4 -a 2 -x {2.0 0.0 1 ------- null}
+ -t 0.140416 -s 0 -d 1 -p tcp -e 1040 -c 2 -i 6 -a 2 -x {0.0 2.0 3 ------- null}
- -t 0.140416 -s 0 -d 1 -p tcp -e 1040 -c 2 -i 6 -a 2 -x {0.0 2.0 3 ------- null}
h -t 0.140416 -s 0 -d 1 -p tcp -e 1040 -c 2 -i 6 -a 2 -x {0.0 2.0 -1 ------- null}
+ -t 0.140416 -s 0 -d 1 -p tcp -e 1040 -c 2 -i 7 -a 2 -x {0.0 2.0 4 ------- null}
- -t 0.14208 -s 0 -d 1 -p tcp -e 1040 -c 2 -i 7 -a 2 -x {0.0 2.0 4 ------- null}
h -t 0.14208 -s 0 -d 1 -p tcp -e 1040 -c 2 -i 7 -a 2 -x {0.0 2.0 -1 ------- null}
r -t 0.146992 -s 2 -d 1 -p ack -e 40 -c 2 -i 5 -a 2 -x {2.0 0.0 2 ------- null}
+ -t 0.146992 -s 1 -d 0 -p ack -e 40 -c 2 -i 5 -a 2 -x {2.0 0.0 2 ------- null}
- -t 0.146992 -s 1 -d 0 -p ack -e 40 -c 2 -i 5 -a 2 -x {2.0 0.0 2 ------- null}
h -t 0.146992 -s 1 -d 0 -p ack -e 40 -c 2 -i 5 -a 2 -x {2.0 0.0 -1 ------- null}
r -t 0.15208 -s 0 -d 1 -p tcp -e 1040 -c 2 -i 6 -a 2 -x {0.0 2.0 3 ------- null}
+ -t 0.15208 -s 1 -d 2 -p tcp -e 1040 -c 2 -i 6 -a 2 -x {0.0 2.0 3 ------- null}
- -t 0.15208 -s 1 -d 2 -p tcp -e 1040 -c 2 -i 6 -a 2 -x {0.0 2.0 3 ------- null}
h -t 0.15208 -s 1 -d 2 -p tcp -e 1040 -c 2 -i 6 -a 2 -x {0.0 2.0 -1 ------- null}
r -t 0.153744 -s 0 -d 1 -p tcp -e 1040 -c 2 -i 7 -a 2 -x {0.0 2.0 4 ------- null}
+ -t 0.153744 -s 1 -d 2 -p tcp -e 1040 -c 2 -i 7 -a 2 -x {0.0 2.0 4 ------- null}
r -t 0.157056 -s 1 -d 0 -p ack -e 40 -c 2 -i 5 -a 2 -x {2.0 0.0 2 ------- null}
+ -t 0.157056 -s 0 -d 1 -p tcp -e 1040 -c 2 -i 8 -a 2 -x {0.0 2.0 5 ------- null}
- -t 0.157056 -s 0 -d 1 -p tcp -e 1040 -c 2 -i 8 -a 2 -x {0.0 2.0 5 ------- null}
h -t 0.157056 -s 0 -d 1 -p tcp -e 1040 -c 2 -i 8 -a 2 -x {0.0 2.0 -1 ------- null}
+ -t 0.157056 -s 0 -d 1 -p tcp -e 1040 -c 2 -i 9 -a 2 -x {0.0 2.0 6 ------- null}
- -t 0.15872 -s 0 -d 1 -p tcp -e 1040 -c 2 -i 9 -a 2 -x {0.0 2.0 6 ------- null}
h -t 0.15872 -s 0 -d 1 -p tcp -e 1040 -c 2 -i 9 -a 2 -x {0.0 2.0 -1 ------- null}
- -t 0.16872 -s 1 -d 2 -p tcp -e 1040 -c 2 -i 7 -a 2 -x {0.0 2.0 4 ------- null}
h -t 0.16872 -s 1 -d 2 -p tcp -e 1040 -c 2 -i 7 -a 2 -x {0.0 2.0 -1 ------- null}
r -t 0.16872 -s 0 -d 1 -p tcp -e 1040 -c 2 -i 8 -a 2 -x {0.0 2.0 5 ------- null}
+ -t 0.16872 -s 1 -d 2 -p tcp -e 1040 -c 2 -i 8 -a 2 -x {0.0 2.0 5 ------- null}
r -t 0.170384 -s 0 -d 1 -p tcp -e 1040 -c 2 -i 9 -a 2 -x {0.0 2.0 6 ------- null}
+ -t 0.170384 -s 1 -d 2 -p tcp -e 1040 -c 2 -i 9 -a 2 -x {0.0 2.0 6 ------- null}
- -t 0.18536 -s 1 -d 2 -p tcp -e 1040 -c 2 -i 8 -a 2 -x {0.0 2.0 5 ------- null}
h -t 0.18536 -s 1 -d 2 -p tcp -e 1040 -c 2 -i 8 -a 2 -x {0.0 2.0 -1 ------- null}
r -t 0.18872 -s 1 -d 2 -p tcp -e 1040 -c 2 -i 6 -a 2 -x {0.0 2.0 3 ------- null}
+ -t 0.18872 -s 2 -d 1 -p ack -e 40 -c 2 -i 10 -a 2 -x {2.0 0.0 3 ------- null}
- -t 0.18872 -s 2 -d 1 -p ack -e 40 -c 2 -i 10 -a 2 -x {2.0 0.0 3 ------- null}
h -t 0.18872 -s 2 -d 1 -p ack -e 40 -c 2 -i 10 -a 2 -x {2.0 0.0 -1 ------- null}
- -t 0.202 -s 1 -d 2 -p tcp -e 1040 -c 2 -i 9 -a 2 -x {0.0 2.0 6 ------- null}
h -t 0.202 -s 1 -d 2 -p tcp -e 1040 -c 2 -i 9 -a 2 -x {0.0 2.0 -1 ------- null}
r -t 0.20536 -s 1 -d 2 -p tcp -e 1040 -c 2 -i 7 -a 2 -x {0.0 2.0 4 ------- null}
+ -t 0.20536 -s 2 -d 1 -p ack -e 40 -c 2 -i 11 -a 2 -x {2.0 0.0 4 ------- null}
- -t 0.20536 -s 2 -d 1 -p ack -e 40 -c 2 -i 11 -a 2 -x {2.0 0.0 4 ------- null}
h -t 0.20536 -s 2 -d 1 -p ack -e 40 -c 2 -i 11 -a 2 -x {2.0 0.0 -1 ------- null}
r -t 0.20936 -s 2 -d 1 -p ack -e 40 -c 2 -i 10 -a 2 -x {2.0 0.0 3 ------- null}
+ -t 0.20936 -s 1 -d 0 -p ack -e 40 -c 2 -i 10 -a 2 -x {2.0 0.0 3 ------- null}
- -t 0.20936 -s 1 -d 0 -p ack -e 40 -c 2 -i 10 -a 2 -x {2.0 0.0 3 ------- null}
h -t 0.20936 -s 1 -d 0 -p ack -e 40 -c 2 -i 10 -a 2 -x {2.0 0.0 -1 ------- null}
r -t 0.219424 -s 1 -d 0 -p ack -e 40 -c 2 -i 10 -a 2 -x {2.0 0.0 3 ------- null}
+ -t 0.219424 -s 0 -d 1 -p tcp -e 1040 -c 2 -i 12 -a 2 -x {0.0 2.0 7 ------- null}
- -t 0.219424 -s 0 -d 1 -p tcp -e 1040 -c 2 -i 12 -a 2 -x {0.0 2.0 7 ------- null}
h -t 0.219424 -s 0 -d 1 -p tcp -e 1040 -c 2 -i 12 -a 2 -x {0.0 2.0 -1 ------- null}
+ -t 0.219424 -s 0 -d 1 -p tcp -e 1040 -c 2 -i 13 -a 2 -x {0.0 2.0 8 ------- null}
- -t 0.221088 -s 0 -d 1 -p tcp -e 1040 -c 2 -i 13 -a 2 -x {0.0 2.0 8 ------- null}
h -t 0.221088 -s 0 -d 1 -p tcp -e 1040 -c 2 -i 13 -a 2 -x {0.0 2.0 -1 ------- null}
r -t 0.222 -s 1 -d 2 -p tcp -e 1040 -c 2 -i 8 -a 2 -x {0.0 2.0 5 ------- null}
+ -t 0.222 -s 2 -d 1 -p ack -e 40 -c 2 -i 14 -a 2 -x {2.0 0.0 5 ------- null}
- -t 0.222 -s 2 -d 1 -p ack -e 40 -c 2 -i 14 -a 2 -x {2.0 0.0 5 ------- null}
h -t 0.222 -s 2 -d 1 -p ack -e 40 -c 2 -i 14 -a 2 -x {2.0 0.0 -1 ------- null}
r -t 0.226 -s 2 -d 1 -p ack -e 40 -c 2 -i 11 -a 2 -x {2.0 0.0 4 ------- null}
+ -t 0.226 -s 1 -d 0 -p ack -e 40 -c 2 -i 11 -a 2 -x {2.0 0.0 4 ------- null}
- -t 0.226 -s 1 -d 0 -p ack -e 40 -c 2 -i 11 -a 2 -x {2.0 0.0 4 ------- null}
h -t 0.226 -s 1 -d 0 -p ack -e 40 -c 2 -i 11 -a 2 -x {2.0 0.0 -1 ------- null}
r -t 0.231088 -s 0 -d 1 -p tcp -e 1040 -c 2 -i 12 -a 2 -x {0.0 2.0 7 ------- null}
+ -t 0.231088 -s 1 -d 2 -p tcp -e 1040 -c 2 -i 12 -a 2 -x {0.0 2.0 7 ------- null}
- -t 0.231088 -s 1 -d 2 -p tcp -e 1040 -c 2 -i 12 -a 2 -x {0.0 2.0 7 ------- null}
h -t 0.231088 -s 1 -d 2 -p tcp -e 1040 -c 2 -i 12 -a 2 -x {0.0 2.0 -1 ------- null}
r -t 0.232752 -s 0 -d 1 -p tcp -e 1040 -c 2 -i 13 -a 2 -x {0.0 2.0 8 ------- null}
+ -t 0.232752 -s 1 -d 2 -p tcp -e 1040 -c 2 -i 13 -a 2 -x {0.0 2.0 8 ------- null}
r -t 0.236064 -s 1 -d 0 -p ack -e 40 -c 2 -i 11 -a 2 -x {2.0 0.0 4 ------- null}
+ -t 0.236064 -s 0 -d 1 -p tcp -e 1040 -c 2 -i 15 -a 2 -x {0.0 2.0 9 ------- null}
- -t 0.236064 -s 0 -d 1 -p tcp -e 1040 -c 2 -i 15 -a 2 -x {0.0 2.0 9 ------- null}
h -t 0.236064 -s 0 -d 1 -p tcp -e 1040 -c 2 -i 15 -a 2 -x {0.0 2.0 -1 ------- null}
+ -t 0.236064 -s 0 -d 1 -p tcp -e 1040 -c 2 -i 16 -a 2 -x {0.0 2.0 10 ------- null}
- -t 0.237728 -s 0 -d 1 -p tcp -e 1040 -c 2 -i 16 -a 2 -x {0.0 2.0 10 ------- null}
h -t 0.237728 -s 0 -d 1 -p tcp -e 1040 -c 2 -i 16 -a 2 -x {0.0 2.0 -1 ------- null}
r -t 0.23864 -s 1 -d 2 -p tcp -e 1040 -c 2 -i 9 -a 2 -x {0.0 2.0 6 ------- null}
+ -t 0.23864 -s 2 -d 1 -p ack -e 40 -c 2 -i 17 -a 2 -x {2.0 0.0 6 ------- null}
- -t 0.23864 -s 2 -d 1 -p ack -e 40 -c 2 -i 17 -a 2 -x {2.0 0.0 6 ------- null}
h -t 0.23864 -s 2 -d 1 -p ack -e 40 -c 2 -i 17 -a 2 -x {2.0 0.0 -1 ------- null}
r -t 0.24264 -s 2 -d 1 -p ack -e 40 -c 2 -i 14 -a 2 -x {2.0 0.0 5 ------- null}
+ -t 0.24264 -s 1 -d 0 -p ack -e 40 -c 2 -i 14 -a 2 -x {2.0 0.0 5 ------- null}
- -t 0.24264 -s 1 -d 0 -p ack -e 40 -c 2 -i 14 -a 2 -x {2.0 0.0 5 ------- null}
h -t 0.24264 -s 1 -d 0 -p ack -e 40 -c 2 -i 14 -a 2 -x {2.0 0.0 -1 ------- null}
- -t 0.247728 -s 1 -d 2 -p tcp -e 1040 -c 2 -i 13 -a 2 -x {0.0 2.0 8 ------- null}
h -t 0.247728 -s 1 -d 2 -p tcp -e 1040 -c 2 -i 13 -a 2 -x {0.0 2.0 -1 ------- null}
r -t 0.247728 -s 0 -d 1 -p tcp -e 1040 -c 2 -i 15 -a 2 -x {0.0 2.0 9 ------- null}
+ -t 0.247728 -s 1 -d 2 -p tcp -e 1040 -c 2 -i 15 -a 2 -x {0.0 2.0 9 ------- null}
r -t 0.249392 -s 0 -d 1 -p tcp -e 1040 -c 2 -i 16 -a 2 -x {0.0 2.0 10 ------- null}
+ -t 0.249392 -s 1 -d 2 -p tcp -e 1040 -c 2 -i 16 -a 2 -x {0.0 2.0 10 ------- null}
r -t 0.252704 -s 1 -d 0 -p ack -e 40 -c 2 -i 14 -a 2 -x {2.0 0.0 5 ------- null}
+ -t 0.252704 -s 0 -d 1 -p tcp -e 1040 -c 2 -i 18 -a 2 -x {0.0 2.0 11 ------- null}
- -t 0.252704 -s 0 -d 1 -p tcp -e 1040 -c 2 -i 18 -a 2 -x {0.0 2.0 11 ------- null}
h -t 0.252704 -s 0 -d 1 -p tcp -e 1040 -c 2 -i 18 -a 2 -x {0.0 2.0 -1 ------- null}
+ -t 0.252704 -s 0 -d 1 -p tcp -e 1040 -c 2 -i 19 -a 2 -x {0.0 2.0 12 ------- null}
- -t 0.254368 -s 0 -d 1 -p tcp -e 1040 -c 2 -i 19 -a 2 -x {0.0 2.0 12 ------- null}
h -t 0.254368 -s 0 -d 1 -p tcp -e 1040 -c 2 -i 19 -a 2 -x {0.0 2.0 -1 ------- null}
r -t 0.25928 -s 2 -d 1 -p ack -e 40 -c 2 -i 17 -a 2 -x {2.0 0.0 6 ------- null}
+ -t 0.25928 -s 1 -d 0 -p ack -e 40 -c 2 -i 17 -a 2 -x {2.0 0.0 6 ------- null}
- -t 0.25928 -s 1 -d 0 -p ack -e 40 -c 2 -i 17 -a 2 -x {2.0 0.0 6 ------- null}
h -t 0.25928 -s 1 -d 0 -p ack -e 40 -c 2 -i 17 -a 2 -x {2.0 0.0 -1 ------- null}
- -t 0.264368 -s 1 -d 2 -p tcp -e 1040 -c 2 -i 15 -a 2 -x {0.0 2.0 9 ------- null}
h -t 0.264368 -s 1 -d 2 -p tcp -e 1040 -c 2 -i 15 -a 2 -x {0.0 2.0 -1 ------- null}
r -t 0.264368 -s 0 -d 1 -p tcp -e 1040 -c 2 -i 18 -a 2 -x {0.0 2.0 11 ------- null}
+ -t 0.264368 -s 1 -d 2 -p tcp -e 1040 -c 2 -i 18 -a 2 -x {0.0 2.0 11 ------- null}
r -t 0.266032 -s 0 -d 1 -p tcp -e 1040 -c 2 -i 19 -a 2 -x {0.0 2.0 12 ------- null}
+ -t 0.266032 -s 1 -d 2 -p tcp -e 1040 -c 2 -i 19 -a 2 -x {0.0 2.0 12 ------- null}
r -t 0.267728 -s 1 -d 2 -p tcp -e 1040 -c 2 -i 12 -a 2 -x {0.0 2.0 7 ------- null}
+ -t 0.267728 -s 2 -d 1 -p ack -e 40 -c 2 -i 20 -a 2 -x {2.0 0.0 7 ------- null}
- -t 0.267728 -s 2 -d 1 -p ack -e 40 -c 2 -i 20 -a 2 -x {2.0 0.0 7 ------- null}
h -t 0.267728 -s 2 -d 1 -p ack -e 40 -c 2 -i 20 -a 2 -x {2.0 0.0 -1 ------- null}
r -t 0.269344 -s 1 -d 0 -p ack -e 40 -c 2 -i 17 -a 2 -x {2.0 0.0 6 ------- null}
+ -t 0.269344 -s 0 -d 1 -p tcp -e 1040 -c 2 -i 21 -a 2 -x {0.0 2.0 13 ------- null}
- -t 0.269344 -s 0 -d 1 -p tcp -e 1040 -c 2 -i 21 -a 2 -x {0.0 2.0 13 ------- null}
h -t 0.269344 -s 0 -d 1 -p tcp -e 1040 -c 2 -i 21 -a 2 -x {0.0 2.0 -1 ------- null}
+ -t 0.269344 -s 0 -d 1 -p tcp -e 1040 -c 2 -i 22 -a 2 -x {0.0 2.0 14 ------- null}
- -t 0.271008 -s 0 -d 1 -p tcp -e 1040 -c 2 -i 22 -a 2 -x {0.0 2.0 14 ------- null}
h -t 0.271008 -s 0 -d 1 -p tcp -e 1040 -c 2 -i 22 -a 2 -x {0.0 2.0 -1 ------- null}
- -t 0.281008 -s 1 -d 2 -p tcp -e 1040 -c 2 -i 16 -a 2 -x {0.0 2.0 10 ------- null}
h -t 0.281008 -s 1 -d 2 -p tcp -e 1040 -c 2 -i 16 -a 2 -x {0.0 2.0 -1 ------- null}
r -t 0.281008 -s 0 -d 1 -p tcp -e 1040 -c 2 -i 21 -a 2 -x {0.0 2.0 13 ------- null}
+ -t 0.281008 -s 1 -d 2 -p tcp -e 1040 -c 2 -i 21 -a 2 -x {0.0 2.0 13 ------- null}
r -t 0.282672 -s 0 -d 1 -p tcp -e 1040 -c 2 -i 22 -a 2 -x {0.0 2.0 14 ------- null}
+ -t 0.282672 -s 1 -d 2 -p tcp -e 1040 -c 2 -i 22 -a 2 -x {0.0 2.0 14 ------- null}
r -t 0.284368 -s 1 -d 2 -p tcp -e 1040 -c 2 -i 13 -a 2 -x {0.0 2.0 8 ------- null}
+ -t 0.284368 -s 2 -d 1 -p ack -e 40 -c 2 -i 23 -a 2 -x {2.0 0.0 8 ------- null}
- -t 0.284368 -s 2 -d 1 -p ack -e 40 -c 2 -i 23 -a 2 -x {2.0 0.0 8 ------- null}
h -t 0.284368 -s 2 -d 1 -p ack -e 40 -c 2 -i 23 -a 2 -x {2.0 0.0 -1 ------- null}
r -t 0.288368 -s 2 -d 1 -p ack -e 40 -c 2 -i 20 -a 2 -x {2.0 0.0 7 ------- null}
+ -t 0.288368 -s 1 -d 0 -p ack -e 40 -c 2 -i 20 -a 2 -x {2.0 0.0 7 ------- null}
- -t 0.288368 -s 1 -d 0 -p ack -e 40 -c 2 -i 20 -a 2 -x {2.0 0.0 7 ------- null}
h -t 0.288368 -s 1 -d 0 -p ack -e 40 -c 2 -i 20 -a 2 -x {2.0 0.0 -1 ------- null}
- -t 0.297648 -s 1 -d 2 -p tcp -e 1040 -c 2 -i 18 -a 2 -x {0.0 2.0 11 ------- null}
h -t 0.297648 -s 1 -d 2 -p tcp -e 1040 -c 2 -i 18 -a 2 -x {0.0 2.0 -1 ------- null}
r -t 0.298432 -s 1 -d 0 -p ack -e 40 -c 2 -i 20 -a 2 -x {2.0 0.0 7 ------- null}
+ -t 0.298432 -s 0 -d 1 -p tcp -e 1040 -c 2 -i 24 -a 2 -x {0.0 2.0 15 ------- null}
- -t 0.298432 -s 0 -d 1 -p tcp -e 1040 -c 2 -i 24 -a 2 -x {0.0 2.0 15 ------- null}
h -t 0.298432 -s 0 -d 1 -p tcp -e 1040 -c 2 -i 24 -a 2 -x {0.0 2.0 -1 ------- null}
+ -t 0.298432 -s 0 -d 1 -p tcp -e 1040 -c 2 -i 25 -a 2 -x {0.0 2.0 16 ------- null}
- -t 0.300096 -s 0 -d 1 -p tcp -e 1040 -c 2 -i 25 -a 2 -x {0.0 2.0 16 ------- null}
h -t 0.300096 -s 0 -d 1 -p tcp -e 1040 -c 2 -i 25 -a 2 -x {0.0 2.0 -1 ------- null}
r -t 0.301008 -s 1 -d 2 -p tcp -e 1040 -c 2 -i 15 -a 2 -x {0.0 2.0 9 ------- null}
+ -t 0.301008 -s 2 -d 1 -p ack -e 40 -c 2 -i 26 -a 2 -x {2.0 0.0 9 ------- null}
- -t 0.301008 -s 2 -d 1 -p ack -e 40 -c 2 -i 26 -a 2 -x {2.0 0.0 9 ------- null}
h -t 0.301008 -s 2 -d 1 -p ack -e 40 -c 2 -i 26 -a 2 -x {2.0 0.0 -1 ------- null}
r -t 0.305008 -s 2 -d 1 -p ack -e 40 -c 2 -i 23 -a 2 -x {2.0 0.0 8 ------- null}
+ -t 0.305008 -s 1 -d 0 -p ack -e 40 -c 2 -i 23 -a 2 -x {2.0 0.0 8 ------- null}
- -t 0.305008 -s 1 -d 0 -p ack -e 40 -c 2 -i 23 -a 2 -x {2.0 0.0 8 ------- null}
h -t 0.305008 -s 1 -d 0 -p ack -e 40 -c 2 -i 23 -a 2 -x {2.0 0.0 -1 ------- null}
r -t 0.310096 -s 0 -d 1 -p tcp -e 1040 -c 2 -i 24 -a 2 -x {0.0 2.0 15 ------- null}
+ -t 0.310096 -s 1 -d 2 -p tcp -e 1040 -c 2 -i 24 -a 2 -x {0.0 2.0 15 ------- null}
r -t 0.31176 -s 0 -d 1 -p tcp -e 1040 -c 2 -i 25 -a 2 -x {0.0 2.0 16 ------- null}
+ -t 0.31176 -s 1 -d 2 -p tcp -e 1040 -c 2 -i 25 -a 2 -x {0.0 2.0 16 ------- null}
- -t 0.314288 -s 1 -d 2 -p tcp -e 1040 -c 2 -i 19 -a 2 -x {0.0 2.0 12 ------- null}
h -t 0.314288 -s 1 -d 2 -p tcp -e 1040 -c 2 -i 19 -a 2 -x {0.0 2.0 -1 ------- null}
r -t 0.315072 -s 1 -d 0 -p ack -e 40 -c 2 -i 23 -a 2 -x {2.0 0.0 8 ------- null}
+ -t 0.315072 -s 0 -d 1 -p tcp -e 1040 -c 2 -i 27 -a 2 -x {0.0 2.0 17 ------- null}
- -t 0.315072 -s 0 -d 1 -p tcp -e 1040 -c 2 -i 27 -a 2 -x {0.0 2.0 17 ------- null}
h -t 0.315072 -s 0 -d 1 -p tcp -e 1040 -c 2 -i 27 -a 2 -x {0.0 2.0 -1 ------- null}
+ -t 0.315072 -s 0 -d 1 -p tcp -e 1040 -c 2 -i 28 -a 2 -x {0.0 2.0 18 ------- null}
- -t 0.316736 -s 0 -d 1 -p tcp -e 1040 -c 2 -i 28 -a 2 -x {0.0 2.0 18 ------- null}
h -t 0.316736 -s 0 -d 1 -p tcp -e 1040 -c 2 -i 28 -a 2 -x {0.0 2.0 -1 ------- null}
r -t 0.317648 -s 1 -d 2 -p tcp -e 1040 -c 2 -i 16 -a 2 -x {0.0 2.0 10 ------- null}
+ -t 0.317648 -s 2 -d 1 -p ack -e 40 -c 2 -i 29 -a 2 -x {2.0 0.0 10 ------- null}
- -t 0.317648 -s 2 -d 1 -p ack -e 40 -c 2 -i 29 -a 2 -x {2.0 0.0 10 ------- null}
h -t 0.317648 -s 2 -d 1 -p ack -e 40 -c 2 -i 29 -a 2 -x {2.0 0.0 -1 ------- null}
r -t 0.321648 -s 2 -d 1 -p ack -e 40 -c 2 -i 26 -a 2 -x {2.0 0.0 9 ------- null}
+ -t 0.321648 -s 1 -d 0 -p ack -e 40 -c 2 -i 26 -a 2 -x {2.0 0.0 9 ------- null}
- -t 0.321648 -s 1 -d 0 -p ack -e 40 -c 2 -i 26 -a 2 -x {2.0 0.0 9 ------- null}
h -t 0.321648 -s 1 -d 0 -p ack -e 40 -c 2 -i 26 -a 2 -x {2.0 0.0 -1 ------- null}
r -t 0.326736 -s 0 -d 1 -p tcp -e 1040 -c 2 -i 27 -a 2 -x {0.0 2.0 17 ------- null}
+ -t 0.326736 -s 1 -d 2 -p tcp -e 1040 -c 2 -i 27 -a 2 -x {0.0 2.0 17 ------- null}
r -t 0.3284 -s 0 -d 1 -p tcp -e 1040 -c 2 -i 28 -a 2 -x {0.0 2.0 18 ------- null}
+ -t 0.3284 -s 1 -d 2 -p tcp -e 1040 -c 2 -i 28 -a 2 -x {0.0 2.0 18 ------- null}
- -t 0.330928 -s 1 -d 2 -p tcp -e 1040 -c 2 -i 21 -a 2 -x {0.0 2.0 13 ------- null}
h -t 0.330928 -s 1 -d 2 -p tcp -e 1040 -c 2 -i 21 -a 2 -x {0.0 2.0 -1 ------- null}
r -t 0.331712 -s 1 -d 0 -p ack -e 40 -c 2 -i 26 -a 2 -x {2.0 0.0 9 ------- null}
+ -t 0.331712 -s 0 -d 1 -p tcp -e 1040 -c 2 -i 30 -a 2 -x {0.0 2.0 19 ------- null}
- -t 0.331712 -s 0 -d 1 -p tcp -e 1040 -c 2 -i 30 -a 2 -x {0.0 2.0 19 ------- null}
h -t 0.331712 -s 0 -d 1 -p tcp -e 1040 -c 2 -i 30 -a 2 -x {0.0 2.0 -1 ------- null}
+ -t 0.331712 -s 0 -d 1 -p tcp -e 1040 -c 2 -i 31 -a 2 -x {0.0 2.0 20 ------- null}
- -t 0.333376 -s 0 -d 1 -p tcp -e 1040 -c 2 -i 31 -a 2 -x {0.0 2.0 20 ------- null}
h -t 0.333376 -s 0 -d 1 -p tcp -e 1040 -c 2 -i 31 -a 2 -x {0.0 2.0 -1 ------- null}
r -t 0.334288 -s 1 -d 2 -p tcp -e 1040 -c 2 -i 18 -a 2 -x {0.0 2.0 11 ------- null}
+ -t 0.334288 -s 2 -d 1 -p ack -e 40 -c 2 -i 32 -a 2 -x {2.0 0.0 11 ------- null}
- -t 0.334288 -s 2 -d 1 -p ack -e 40 -c 2 -i 32 -a 2 -x {2.0 0.0 11 ------- null}
h -t 0.334288 -s 2 -d 1 -p ack -e 40 -c 2 -i 32 -a 2 -x {2.0 0.0 -1 ------- null}
r -t 0.338288 -s 2 -d 1 -p ack -e 40 -c 2 -i 29 -a 2 -x {2.0 0.0 10 ------- null}
+ -t 0.338288 -s 1 -d 0 -p ack -e 40 -c 2 -i 29 -a 2 -x {2.0 0.0 10 ------- null}
- -t 0.338288 -s 1 -d 0 -p ack -e 40 -c 2 -i 29 -a 2 -x {2.0 0.0 10 ------- null}
h -t 0.338288 -s 1 -d 0 -p ack -e 40 -c 2 -i 29 -a 2 -x {2.0 0.0 -1 ------- null}
r -t 0.343376 -s 0 -d 1 -p tcp -e 1040 -c 2 -i 30 -a 2 -x {0.0 2.0 19 ------- null}
+ -t 0.343376 -s 1 -d 2 -p tcp -e 1040 -c 2 -i 30 -a 2 -x {0.0 2.0 19 ------- null}
r -t 0.34504 -s 0 -d 1 -p tcp -e 1040 -c 2 -i 31 -a 2 -x {0.0 2.0 20 ------- null}
+ -t 0.34504 -s 1 -d 2 -p tcp -e 1040 -c 2 -i 31 -a 2 -x {0.0 2.0 20 ------- null}
- -t 0.347568 -s 1 -d 2 -p tcp -e 1040 -c 2 -i 22 -a 2 -x {0.0 2.0 14 ------- null}
h -t 0.347568 -s 1 -d 2 -p tcp -e 1040 -c 2 -i 22 -a 2 -x {0.0 2.0 -1 ------- null}
r -t 0.348352 -s 1 -d 0 -p ack -e 40 -c 2 -i 29 -a 2 -x {2.0 0.0 10 ------- null}
+ -t 0.348352 -s 0 -d 1 -p tcp -e 1040 -c 2 -i 33 -a 2 -x {0.0 2.0 21 ------- null}
- -t 0.348352 -s 0 -d 1 -p tcp -e 1040 -c 2 -i 33 -a 2 -x {0.0 2.0 21 ------- null}
h -t 0.348352 -s 0 -d 1 -p tcp -e 1040 -c 2 -i 33 -a 2 -x {0.0 2.0 -1 ------- null}
+ -t 0.348352 -s 0 -d 1 -p tcp -e 1040 -c 2 -i 34 -a 2 -x {0.0 2.0 22 ------- null}
- -t 0.350016 -s 0 -d 1 -p tcp -e 1040 -c 2 -i 34 -a 2 -x {0.0 2.0 22 ------- null}
h -t 0.350016 -s 0 -d 1 -p tcp -e 1040 -c 2 -i 34 -a 2 -x {0.0 2.0 -1 ------- null}
r -t 0.350928 -s 1 -d 2 -p tcp -e 1040 -c 2 -i 19 -a 2 -x {0.0 2.0 12 ------- null}
+ -t 0.350928 -s 2 -d 1 -p ack -e 40 -c 2 -i 35 -a 2 -x {2.0 0.0 12 ------- null}
- -t 0.350928 -s 2 -d 1 -p ack -e 40 -c 2 -i 35 -a 2 -x {2.0 0.0 12 ------- null}
h -t 0.350928 -s 2 -d 1 -p ack -e 40 -c 2 -i 35 -a 2 -x {2.0 0.0 -1 ------- null}
r -t 0.354928 -s 2 -d 1 -p ack -e 40 -c 2 -i 32 -a 2 -x {2.0 0.0 11 ------- null}
+ -t 0.354928 -s 1 -d 0 -p ack -e 40 -c 2 -i 32 -a 2 -x {2.0 0.0 11 ------- null}
- -t 0.354928 -s 1 -d 0 -p ack -e 40 -c 2 -i 32 -a 2 -x {2.0 0.0 11 ------- null}
h -t 0.354928 -s 1 -d 0 -p ack -e 40 -c 2 -i 32 -a 2 -x {2.0 0.0 -1 ------- null}
r -t 0.360016 -s 0 -d 1 -p tcp -e 1040 -c 2 -i 33 -a 2 -x {0.0 2.0 21 ------- null}
+ -t 0.360016 -s 1 -d 2 -p tcp -e 1040 -c 2 -i 33 -a 2 -x {0.0 2.0 21 ------- null}
r -t 0.36168 -s 0 -d 1 -p tcp -e 1040 -c 2 -i 34 -a 2 -x {0.0 2.0 22 ------- null}
+ -t 0.36168 -s 1 -d 2 -p tcp -e 1040 -c 2 -i 34 -a 2 -x {0.0 2.0 22 ------- null}
- -t 0.364208 -s 1 -d 2 -p tcp -e 1040 -c 2 -i 24 -a 2 -x {0.0 2.0 15 ------- null}
h -t 0.364208 -s 1 -d 2 -p tcp -e 1040 -c 2 -i 24 -a 2 -x {0.0 2.0 -1 ------- null}
r -t 0.364992 -s 1 -d 0 -p ack -e 40 -c 2 -i 32 -a 2 -x {2.0 0.0 11 ------- null}
+ -t 0.364992 -s 0 -d 1 -p tcp -e 1040 -c 2 -i 36 -a 2 -x {0.0 2.0 23 ------- null}
- -t 0.364992 -s 0 -d 1 -p tcp -e 1040 -c 2 -i 36 -a 2 -x {0.0 2.0 23 ------- null}
h -t 0.364992 -s 0 -d 1 -p tcp -e 1040 -c 2 -i 36 -a 2 -x {0.0 2.0 -1 ------- null}
+ -t 0.364992 -s 0 -d 1 -p tcp -e 1040 -c 2 -i 37 -a 2 -x {0.0 2.0 24 ------- null}
- -t 0.366656 -s 0 -d 1 -p tcp -e 1040 -c 2 -i 37 -a 2 -x {0.0 2.0 24 ------- null}
h -t 0.366656 -s 0 -d 1 -p tcp -e 1040 -c 2 -i 37 -a 2 -x {0.0 2.0 -1 ------- null}
r -t 0.367568 -s 1 -d 2 -p tcp -e 1040 -c 2 -i 21 -a 2 -x {0.0 2.0 13 ------- null}
+ -t 0.367568 -s 2 -d 1 -p ack -e 40 -c 2 -i 38 -a 2 -x {2.0 0.0 13 ------- null}
- -t 0.367568 -s 2 -d 1 -p ack -e 40 -c 2 -i 38 -a 2 -x {2.0 0.0 13 ------- null}
h -t 0.367568 -s 2 -d 1 -p ack -e 40 -c 2 -i 38 -a 2 -x {2.0 0.0 -1 ------- null}
r -t 0.371568 -s 2 -d 1 -p ack -e 40 -c 2 -i 35 -a 2 -x {2.0 0.0 12 ------- null}
+ -t 0.371568 -s 1 -d 0 -p ack -e 40 -c 2 -i 35 -a 2 -x {2.0 0.0 12 ------- null}
- -t 0.371568 -s 1 -d 0 -p ack -e 40 -c 2 -i 35 -a 2 -x {2.0 0.0 12 ------- null}
h -t 0.371568 -s 1 -d 0 -p ack -e 40 -c 2 -i 35 -a 2 -x {2.0 0.0 -1 ------- null}
r -t 0.376656 -s 0 -d 1 -p tcp -e 1040 -c 2 -i 36 -a 2 -x {0.0 2.0 23 ------- null}
+ -t 0.376656 -s 1 -d 2 -p tcp -e 1040 -c 2 -i 36 -a 2 -x {0.0 2.0 23 ------- null}
r -t 0.37832 -s 0 -d 1 -p tcp -e 1040 -c 2 -i 37 -a 2 -x {0.0 2.0 24 ------- null}
+ -t 0.37832 -s 1 -d 2 -p tcp -e 1040 -c 2 -i 37 -a 2 -x {0.0 2.0 24 ------- null}
- -t 0.380848 -s 1 -d 2 -p tcp -e 1040 -c 2 -i 25 -a 2 -x {0.0 2.0 16 ------- null}
h -t 0.380848 -s 1 -d 2 -p tcp -e 1040 -c 2 -i 25 -a 2 -x {0.0 2.0 -1 ------- null}
r -t 0.381632 -s 1 -d 0 -p ack -e 40 -c 2 -i 35 -a 2 -x {2.0 0.0 12 ------- null}
+ -t 0.381632 -s 0 -d 1 -p tcp -e 1040 -c 2 -i 39 -a 2 -x {0.0 2.0 25 ------- null}
- -t 0.381632 -s 0 -d 1 -p tcp -e 1040 -c 2 -i 39 -a 2 -x {0.0 2.0 25 ------- null}
h -t 0.381632 -s 0 -d 1 -p tcp -e 1040 -c 2 -i 39 -a 2 -x {0.0 2.0 -1 ------- null}
+ -t 0.381632 -s 0 -d 1 -p tcp -e 1040 -c 2 -i 40 -a 2 -x {0.0 2.0 26 ------- null}
- -t 0.383296 -s 0 -d 1 -p tcp -e 1040 -c 2 -i 40 -a 2 -x {0.0 2.0 26 ------- null}
h -t 0.383296 -s 0 -d 1 -p tcp -e 1040 -c 2 -i 40 -a 2 -x {0.0 2.0 -1 ------- null}
r -t 0.384208 -s 1 -d 2 -p tcp -e 1040 -c 2 -i 22 -a 2 -x {0.0 2.0 14 ------- null}
+ -t 0.384208 -s 2 -d 1 -p ack -e 40 -c 2 -i 41 -a 2 -x {2.0 0.0 14 ------- null}
- -t 0.384208 -s 2 -d 1 -p ack -e 40 -c 2 -i 41 -a 2 -x {2.0 0.0 14 ------- null}
h -t 0.384208 -s 2 -d 1 -p ack -e 40 -c 2 -i 41 -a 2 -x {2.0 0.0 -1 ------- null}
r -t 0.388208 -s 2 -d 1 -p ack -e 40 -c 2 -i 38 -a 2 -x {2.0 0.0 13 ------- null}
+ -t 0.388208 -s 1 -d 0 -p ack -e 40 -c 2 -i 38 -a 2 -x {2.0 0.0 13 ------- null}
- -t 0.388208 -s 1 -d 0 -p ack -e 40 -c 2 -i 38 -a 2 -x {2.0 0.0 13 ------- null}
h -t 0.388208 -s 1 -d 0 -p ack -e 40 -c 2 -i 38 -a 2 -x {2.0 0.0 -1 ------- null}
r -t 0.393296 -s 0 -d 1 -p tcp -e 1040 -c 2 -i 39 -a 2 -x {0.0 2.0 25 ------- null}
+ -t 0.393296 -s 1 -d 2 -p tcp -e 1040 -c 2 -i 39 -a 2 -x {0.0 2.0 25 ------- null}
r -t 0.39496 -s 0 -d 1 -p tcp -e 1040 -c 2 -i 40 -a 2 -x {0.0 2.0 26 ------- null}
+ -t 0.39496 -s 1 -d 2 -p tcp -e 1040 -c 2 -i 40 -a 2 -x {0.0 2.0 26 ------- null}
d -t 0.39496 -s 1 -d 2 -p tcp -e 1040 -c 2 -i 40 -a 2 -x {0.0 2.0 26 ------- null}
- -t 0.397488 -s 1 -d 2 -p tcp -e 1040 -c 2 -i 27 -a 2 -x {0.0 2.0 17 ------- null}
h -t 0.397488 -s 1 -d 2 -p tcp -e 1040 -c 2 -i 27 -a 2 -x {0.0 2.0 -1 ------- null}
r -t 0.398272 -s 1 -d 0 -p ack -e 40 -c 2 -i 38 -a 2 -x {2.0 0.0 13 ------- null}
+ -t 0.398272 -s 0 -d 1 -p tcp -e 1040 -c 2 -i 42 -a 2 -x {0.0 2.0 27 ------- null}
- -t 0.398272 -s 0 -d 1 -p tcp -e 1040 -c 2 -i 42 -a 2 -x {0.0 2.0 27 ------- null}
h -t 0.398272 -s 0 -d 1 -p tcp -e 1040 -c 2 -i 42 -a 2 -x {0.0 2.0 -1 ------- null}
+ -t 0.398272 -s 0 -d 1 -p tcp -e 1040 -c 2 -i 43 -a 2 -x {0.0 2.0 28 ------- null}
- -t 0.399936 -s 0 -d 1 -p tcp -e 1040 -c 2 -i 43 -a 2 -x {0.0 2.0 28 ------- null}
h -t 0.399936 -s 0 -d 1 -p tcp -e 1040 -c 2 -i 43 -a 2 -x {0.0 2.0 -1 ------- null}
r -t 0.400848 -s 1 -d 2 -p tcp -e 1040 -c 2 -i 24 -a 2 -x {0.0 2.0 15 ------- null}
+ -t 0.400848 -s 2 -d 1 -p ack -e 40 -c 2 -i 44 -a 2 -x {2.0 0.0 15 ------- null}
- -t 0.400848 -s 2 -d 1 -p ack -e 40 -c 2 -i 44 -a 2 -x {2.0 0.0 15 ------- null}
h -t 0.400848 -s 2 -d 1 -p ack -e 40 -c 2 -i 44 -a 2 -x {2.0 0.0 -1 ------- null}
r -t 0.404848 -s 2 -d 1 -p ack -e 40 -c 2 -i 41 -a 2 -x {2.0 0.0 14 ------- null}
+ -t 0.404848 -s 1 -d 0 -p ack -e 40 -c 2 -i 41 -a 2 -x {2.0 0.0 14 ------- null}
- -t 0.404848 -s 1 -d 0 -p ack -e 40 -c 2 -i 41 -a 2 -x {2.0 0.0 14 ------- null}
h -t 0.404848 -s 1 -d 0 -p ack -e 40 -c 2 -i 41 -a 2 -x {2.0 0.0 -1 ------- null}
r -t 0.409936 -s 0 -d 1 -p tcp -e 1040 -c 2 -i 42 -a 2 -x {0.0 2.0 27 ------- null}
+ -t 0.409936 -s 1 -d 2 -p tcp -e 1040 -c 2 -i 42 -a 2 -x {0.0 2.0 27 ------- null}
r -t 0.4116 -s 0 -d 1 -p tcp -e 1040 -c 2 -i 43 -a 2 -x {0.0 2.0 28 ------- null}
+ -t 0.4116 -s 1 -d 2 -p tcp -e 1040 -c 2 -i 43 -a 2 -x {0.0 2.0 28 ------- null}
d -t 0.4116 -s 1 -d 2 -p tcp -e 1040 -c 2 -i 43 -a 2 -x {0.0 2.0 28 ------- null}
- -t 0.414128 -s 1 -d 2 -p tcp -e 1040 -c 2 -i 28 -a 2 -x {0.0 2.0 18 ------- null}
h -t 0.414128 -s 1 -d 2 -p tcp -e 1040 -c 2 -i 28 -a 2 -x {0.0 2.0 -1 ------- null}
r -t 0.414912 -s 1 -d 0 -p ack -e 40 -c 2 -i 41 -a 2 -x {2.0 0.0 14 ------- null}
+ -t 0.414912 -s 0 -d 1 -p tcp -e 1040 -c 2 -i 45 -a 2 -x {0.0 2.0 29 ------- null}
- -t 0.414912 -s 0 -d 1 -p tcp -e 1040 -c 2 -i 45 -a 2 -x {0.0 2.0 29 ------- null}
h -t 0.414912 -s 0 -d 1 -p tcp -e 1040 -c 2 -i 45 -a 2 -x {0.0 2.0 -1 ------- null}
+ -t 0.414912 -s 0 -d 1 -p tcp -e 1040 -c 2 -i 46 -a 2 -x {0.0 2.0 30 ------- null}
- -t 0.416576 -s 0 -d 1 -p tcp -e 1040 -c 2 -i 46 -a 2 -x {0.0 2.0 30 ------- null}
h -t 0.416576 -s 0 -d 1 -p tcp -e 1040 -c 2 -i 46 -a 2 -x {0.0 2.0 -1 ------- null}
r -t 0.417488 -s 1 -d 2 -p tcp -e 1040 -c 2 -i 25 -a 2 -x {0.0 2.0 16 ------- null}
+ -t 0.417488 -s 2 -d 1 -p ack -e 40 -c 2 -i 47 -a 2 -x {2.0 0.0 16 ------- null}
- -t 0.417488 -s 2 -d 1 -p ack -e 40 -c 2 -i 47 -a 2 -x {2.0 0.0 16 ------- null}
h -t 0.417488 -s 2 -d 1 -p ack -e 40 -c 2 -i 47 -a 2 -x {2.0 0.0 -1 ------- null}
r -t 0.421488 -s 2 -d 1 -p ack -e 40 -c 2 -i 44 -a 2 -x {2.0 0.0 15 ------- null}
+ -t 0.421488 -s 1 -d 0 -p ack -e 40 -c 2 -i 44 -a 2 -x {2.0 0.0 15 ------- null}
- -t 0.421488 -s 1 -d 0 -p ack -e 40 -c 2 -i 44 -a 2 -x {2.0 0.0 15 ------- null}
h -t 0.421488 -s 1 -d 0 -p ack -e 40 -c 2 -i 44 -a 2 -x {2.0 0.0 -1 ------- null}
r -t 0.426576 -s 0 -d 1 -p tcp -e 1040 -c 2 -i 45 -a 2 -x {0.0 2.0 29 ------- null}
+ -t 0.426576 -s 1 -d 2 -p tcp -e 1040 -c 2 -i 45 -a 2 -x {0.0 2.0 29 ------- null}
r -t 0.42824 -s 0 -d 1 -p tcp -e 1040 -c 2 -i 46 -a 2 -x {0.0 2.0 30 ------- null}
+ -t 0.42824 -s 1 -d 2 -p tcp -e 1040 -c 2 -i 46 -a 2 -x {0.0 2.0 30 ------- null}
d -t 0.42824 -s 1 -d 2 -p tcp -e 1040 -c 2 -i 46 -a 2 -x {0.0 2.0 30 ------- null}
- -t 0.430768 -s 1 -d 2 -p tcp -e 1040 -c 2 -i 30 -a 2 -x {0.0 2.0 19 ------- null}
h -t 0.430768 -s 1 -d 2 -p tcp -e 1040 -c 2 -i 30 -a 2 -x {0.0 2.0 -1 ------- null}
r -t 0.431552 -s 1 -d 0 -p ack -e 40 -c 2 -i 44 -a 2 -x {2.0 0.0 15 ------- null}
+ -t 0.431552 -s 0 -d 1 -p tcp -e 1040 -c 2 -i 48 -a 2 -x {0.0 2.0 31 ------- null}
- -t 0.431552 -s 0 -d 1 -p tcp -e 1040 -c 2 -i 48 -a 2 -x {0.0 2.0 31 ------- null}
h -t 0.431552 -s 0 -d 1 -p tcp -e 1040 -c 2 -i 48 -a 2 -x {0.0 2.0 -1 ------- null}
+ -t 0.431552 -s 0 -d 1 -p tcp -e 1040 -c 2 -i 49 -a 2 -x {0.0 2.0 32 ------- null}
- -t 0.433216 -s 0 -d 1 -p tcp -e 1040 -c 2 -i 49 -a 2 -x {0.0 2.0 32 ------- null}
h -t 0.433216 -s 0 -d 1 -p tcp -e 1040 -c 2 -i 49 -a 2 -x {0.0 2.0 -1 ------- null}
r -t 0.434128 -s 1 -d 2 -p tcp -e 1040 -c 2 -i 27 -a 2 -x {0.0 2.0 17 ------- null}
+ -t 0.434128 -s 2 -d 1 -p ack -e 40 -c 2 -i 50 -a 2 -x {2.0 0.0 17 ------- null}
- -t 0.434128 -s 2 -d 1 -p ack -e 40 -c 2 -i 50 -a 2 -x {2.0 0.0 17 ------- null}
h -t 0.434128 -s 2 -d 1 -p ack -e 40 -c 2 -i 50 -a 2 -x {2.0 0.0 -1 ------- null}