+ 0 0 1 tcp 40 ------- 2 0.0 2.0 0 0
- 0 0 1 tcp 40 ------- 2 0.0 2.0 0 0
r 0.010064 0 1 tcp 40 ------- 2 0.0 2.0 0 0
+ 0.010064 1 2 tcp 40 ------- 2 0.0 2.0 0 0
- 0.010064 1 2 tcp 40 ------- 2 0.0 2.0 0 0
r 0.030704 1 2 tcp 40 ------- 2 0.0 2.0 0 0
+ 0.030704 2 1 ack 40 ------- 2 2.0 0.0 0 1
- 0.030704 2 1 ack 40 ------- 2 2.0 0.0 0 1
r 0.051344 2 1 ack 40 ------- 2 2.0 0.0 0 1
+ 0.051344 1 0 ack 40 ------- 2 2.0 0.0 0 1
- 0.051344 1 0 ack 40 ------- 2 2.0 0.0 0 1
r 0.061408 1 0 ack 40 ------- 2 2.0 0.0 0 1
+ 0.061408 0 1 tcp 1040 ------- 2 0.0 2.0 1 2
- 0.061408 0 1 tcp 1040 ------- 2 0.0 2.0 1 2
+ 0.061408 0 1 tcp 1040 ------- 2 0.0 2.0 2 3
- 0.063072 0 1 tcp 1040 ------- 2 0.0 2.0 2 3
r 0.073072 0 1 tcp 1040 ------- 2 0.0 2.0 1 2
+ 0.073072 1 2 tcp 1040 ------- 2 0.0 2.0 1 2
- 0.073072 1 2 tcp 1040 ------- 2 0.0 2.0 1 2
r 0.074736 0 1 tcp 1040 ------- 2 0.0 2.0 2 3
+ 0.074736 1 2 tcp 1040 ------- 2 0.0 2.0 2 3
- 0.089712 1 2 tcp 1040 ------- 2 0.0 2.0 2 3
r 0.109712 1 2 tcp 1040 ------- 2 0.0 2.0 1 2
+ 0.109712 2 1 ack 40 ------- 2 2.0 0.0 1 4
- 0.109712 2 1 ack 40 ------- 2 2.0 0.0 1 4
r 0.126352 1 2 tcp 1040 ------- 2 0.0 2.0 2 3
+ 0.126352 2 1 ack 40 ------- 2 2.0 0.0 2 5
- 0.126352 2 1 ack 40 ------- 2 2.0 0.0 2 5
r 0.130352 2 1 ack 40 ------- 2 2.0 0.0 1 4
+ 0.130352 1 0 ack 40 ------- 2 2.0 0.0 1 4
- 0.130352 1 0 ack 40 ------- 2 2.0 0.0 1 4
r 0.140416 1 0 ack 40 ------- 2 2.0 0.0 1 4
+ 0.140416 0 1 tcp 1040 ------- 2 0.0 2.0 3 6
- 0.140416 0 1 tcp 1040 ------- 2 0.0 2.0 3 6
+ 0.140416 0 1 tcp 1040 ------- 2 0.0 2.0 4 7
- 0.14208 0 1 tcp 1040 ------- 2 0.0 2.0 4 7
r 0.146992 2 1 ack 40 ------- 2 2.0 0.0 2 5
+ 0.146992 1 0 ack 40 ------- 2 2.0 0.0 2 5
- 0.146992 1 0 ack 40 ------- 2 2.0 0.0 2 5
r 0.15208 0 1 tcp 1040 ------- 2 0.0 2.0 3 6
+ 0.15208 1 2 tcp 1040 ------- 2 0.0 2.0 3 6
- 0.15208 1 2 tcp 1040 ------- 2 0.0 2.0 3 6
r 0.153744 0 1 tcp 1040 ------- 2 0.0 2.0 4 7
+ 0.153744 1 2 tcp 1040 ------- 2 0.0 2.0 4 7
r 0.157056 1 0 ack 40 ------- 2 2.0 0.0 2 5
+ 0.157056 0 1 tcp 1040 ------- 2 0.0 2.0 5 8
- 0.157056 0 1 tcp 1040 ------- 2 0.0 2.0 5 8
+ 0.157056 0 1 tcp 1040 ------- 2 0.0 2.0 6 9
- 0.15872 0 1 tcp 1040 ------- 2 0.0 2.0 6 9
- 0.16872 1 2 tcp 1040 ------- 2 0.0 2.0 4 7
r 0.16872 0 1 tcp 1040 ------- 2 0.0 2.0 5 8
+ 0.16872 1 2 tcp 1040 ------- 2 0.0 2.0 5 8
r 0.170384 0 1 tcp 1040 ------- 2 0.0 2.0 6 9
+ 0.170384 1 2 tcp 1040 ------- 2 0.0 2.0 6 9
- 0.18536 1 2 tcp 1040 ------- 2 0.0 2.0 5 8
r 0.18872 1 2 tcp 1040 ------- 2 0.0 2.0 3 6
+ 0.18872 2 1 ack 40 ------- 2 2.0 0.0 3 10
- 0.18872 2 1 ack 40 ------- 2 2.0 0.0 3 10
- 0.202 1 2 tcp 1040 ------- 2 0.0 2.0 6 9
r 0.20536 1 2 tcp 1040 ------- 2 0.0 2.0 4 7
+ 0.20536 2 1 ack 40 ------- 2 2.0 0.0 4 11
- 0.20536 2 1 ack 40 ------- 2 2.0 0.0 4 11
r 0.20936 2 1 ack 40 ------- 2 2.0 0.0 3 10
+ 0.20936 1 0 ack 40 ------- 2 2.0 0.0 3 10
- 0.20936 1 0 ack 40 ------- 2 2.0 0.0 3 10
r 0.219424 1 0 ack 40 ------- 2 2.0 0.0 3 10
+ 0.219424 0 1 tcp 1040 ------- 2 0.0 2.0 7 12
- 0.219424 0 1 tcp 1040 ------- 2 0.0 2.0 7 12
+ 0.219424 0 1 tcp 1040 ------- 2 0.0 2.0 8 13
- 0.221088 0 1 tcp 1040 ------- 2 0.0 2.0 8 13
r 0.222 1 2 tcp 1040 ------- 2 0.0 2.0 5 8
+ 0.222 2 1 ack 40 ------- 2 2.0 0.0 5 14
- 0.222 2 1 ack 40 ------- 2 2.0 0.0 5 14
r 0.226 2 1 ack 40 ------- 2 2.0 0.0 4 11
+ 0.226 1 0 ack 40 ------- 2 2.0 0.0 4 11
- 0.226 1 0 ack 40 ------- 2 2.0 0.0 4 11
r 0.231088 0 1 tcp 1040 ------- 2 0.0 2.0 7 12
+ 0.231088 1 2 tcp 1040 ------- 2 0.0 2.0 7 12
- 0.231088 1 2 tcp 1040 ------- 2 0.0 2.0 7 12
r 0.232752 0 1 tcp 1040 ------- 2 0.0 2.0 8 13
+ 0.232752 1 2 tcp 1040 ------- 2 0.0 2.0 8 13
r 0.236064 1 0 ack 40 ------- 2 2.0 0.0 4 11
+ 0.236064 0 1 tcp 1040 ------- 2 0.0 2.0 9 15
- 0.236064 0 1 tcp 1040 ------- 2 0.0 2.0 9 15
+ 0.236064 0 1 tcp 1040 ------- 2 0.0 2.0 10 16
- 0.237728 0 1 tcp 1040 ------- 2 0.0 2.0 10 16
r 0.23864 1 2 tcp 1040 ------- 2 0.0 2.0 6 9
+ 0.23864 2 1 ack 40 ------- 2 2.0 0.0 6 17
- 0.23864 2 1 ack 40 ------- 2 2.0 0.0 6 17
r 0.24264 2 1 ack 40 ------- 2 2.0 0.0 5 14
+ 0.24264 1 0 ack 40 ------- 2 2.0 0.0 5 14
- 0.24264 1 0 ack 40 ------- 2 2.0 0.0 5 14
- 0.247728 1 2 tcp 1040 ------- 2 0.0 2.0 8 13
r 0.247728 0 1 tcp 1040 ------- 2 0.0 2.0 9 15
+ 0.247728 1 2 tcp 1040 ------- 2 0.0 2.0 9 15
r 0.249392 0 1 tcp 1040 ------- 2 0.0 2.0 10 16
+ 0.249392 1 2 tcp 1040 ------- 2 0.0 2.0 10 16
r 0.252704 1 0 ack 40 ------- 2 2.0 0.0 5 14
+ 0.252704 0 1 tcp 1040 ------- 2 0.0 2.0 11 18
- 0.252704 0 1 tcp 1040 ------- 2 0.0 2.0 11 18
+ 0.252704 0 1 tcp 1040 ------- 2 0.0 2.0 12 19
- 0.254368 0 1 tcp 1040 ------- 2 0.0 2.0 12 19
r 0.25928 2 1 ack 40 ------- 2 2.0 0.0 6 17
+ 0.25928 1 0 ack 40 ------- 2 2.0 0.0 6 17
- 0.25928 1 0 ack 40 ------- 2 2.0 0.0 6 17
- 0.264368 1 2 tcp 1040 ------- 2 0.0 2.0 9 15
r 0.264368 0 1 tcp 1040 ------- 2 0.0 2.0 11 18
+ 0.264368 1 2 tcp 1040 ------- 2 0.0 2.0 11 18
r 0.266032 0 1 tcp 1040 ------- 2 0.0 2.0 12 19
+ 0.266032 1 2 tcp 1040 ------- 2 0.0 2.0 12 19
r 0.267728 1 2 tcp 1040 ------- 2 0.0 2.0 7 12
+ 0.267728 2 1 ack 40 ------- 2 2.0 0.0 7 20
- 0.267728 2 1 ack 40 ------- 2 2.0 0.0 7 20
r 0.269344 1 0 ack 40 ------- 2 2.0 0.0 6 17
+ 0.269344 0 1 tcp 1040 ------- 2 0.0 2.0 13 21
- 0.269344 0 1 tcp 1040 ------- 2 0.0 2.0 13 21
+ 0.269344 0 1 tcp 1040 ------- 2 0.0 2.0 14 22
- 0.271008 0 1 tcp 1040 ------- 2 0.0 2.0 14 22
- 0.281008 1 2 tcp 1040 ------- 2 0.0 2.0 10 16
r 0.281008 0 1 tcp 1040 ------- 2 0.0 2.0 13 21
+ 0.281008 1 2 tcp 1040 ------- 2 0.0 2.0 13 21
r 0.282672 0 1 tcp 1040 ------- 2 0.0 2.0 14 22
+ 0.282672 1 2 tcp 1040 ------- 2 0.0 2.0 14 22
r 0.284368 1 2 tcp 1040 ------- 2 0.0 2.0 8 13
+ 0.284368 2 1 ack 40 ------- 2 2.0 0.0 8 23
- 0.284368 2 1 ack 40 ------- 2 2.0 0.0 8 23
r 0.288368 2 1 ack 40 ------- 2 2.0 0.0 7 20
+ 0.288368 1 0 ack 40 ------- 2 2.0 0.0 7 20
- 0.288368 1 0 ack 40 ------- 2 2.0 0.0 7 20
- 0.297648 1 2 tcp 1040 ------- 2 0.0 2.0 11 18
r 0.298432 1 0 ack 40 ------- 2 2.0 0.0 7 20
+ 0.298432 0 1 tcp 1040 ------- 2 0.0 2.0 15 24
- 0.298432 0 1 tcp 1040 ------- 2 0.0 2.0 15 24
+ 0.298432 0 1 tcp 1040 ------- 2 0.0 2.0 16 25
- 0.300096 0 1 tcp 1040 ------- 2 0.0 2.0 16 25
r 0.301008 1 2 tcp 1040 ------- 2 0.0 2.0 9 15
+ 0.301008 2 1 ack 40 ------- 2 2.0 0.0 9 26
- 0.301008 2 1 ack 40 ------- 2 2.0 0.0 9 26
r 0.305008 2 1 ack 40 ------- 2 2.0 0.0 8 23
+ 0.305008 1 0 ack 40 ------- 2 2.0 0.0 8 23
- 0.305008 1 0 ack 40 ------- 2 2.0 0.0 8 23
r 0.310096 0 1 tcp 1040 ------- 2 0.0 2.0 15 24
+ 0.310096 1 2 tcp 1040 ------- 2 0.0 2.0 15 24
r 0.31176 0 1 tcp 1040 ------- 2 0.0 2.0 16 25
+ 0.31176 1 2 tcp 1040 ------- 2 0.0 2.0 16 25
- 0.314288 1 2 tcp 1040 ------- 2 0.0 2.0 12 19
r 0.315072 1 0 ack 40 ------- 2 2.0 0.0 8 23
+ 0.315072 0 1 tcp 1040 ------- 2 0.0 2.0 17 27
- 0.315072 0 1 tcp 1040 ------- 2 0.0 2.0 17 27
+ 0.315072 0 1 tcp 1040 ------- 2 0.0 2.0 18 28
- 0.316736 0 1 tcp 1040 ------- 2 0.0 2.0 18 28
r 0.317648 1 2 tcp 1040 ------- 2 0.0 2.0 10 16
+ 0.317648 2 1 ack 40 ------- 2 2.0 0.0 10 29
- 0.317648 2 1 ack 40 ------- 2 2.0 0.0 10 29
r 0.321648 2 1 ack 40 ------- 2 2.0 0.0 9 26
+ 0.321648 1 0 ack 40 ------- 2 2.0 0.0 9 26
- 0.321648 1 0 ack 40 ------- 2 2.0 0.0 9 26
r 0.326736 0 1 tcp 1040 ------- 2 0.0 2.0 17 27
+ 0.326736 1 2 tcp 1040 ------- 2 0.0 2.0 17 27
r 0.3284 0 1 tcp 1040 ------- 2 0.0 2.0 18 28
+ 0.3284 1 2 tcp 1040 ------- 2 0.0 2.0 18 28
- 0.330928 1 2 tcp 1040 ------- 2 0.0 2.0 13 21
r 0.331712 1 0 ack 40 ------- 2 2.0 0.0 9 26
+ 0.331712 0 1 tcp 1040 ------- 2 0.0 2.0 19 30
- 0.331712 0 1 tcp 1040 ------- 2 0.0 2.0 19 30
+ 0.331712 0 1 tcp 1040 ------- 2 0.0 2.0 20 31
- 0.333376 0 1 tcp 1040 ------- 2 0.0 2.0 20 31
r 0.334288 1 2 tcp 1040 ------- 2 0.0 2.0 11 18
+ 0.334288 2 1 ack 40 ------- 2 2.0 0.0 11 32
- 0.334288 2 1 ack 40 ------- 2 2.0 0.0 11 32
r 0.338288 2 1 ack 40 ------- 2 2.0 0.0 10 29
+ 0.338288 1 0 ack 40 ------- 2 2.0 0.0 10 29
- 0.338288 1 0 ack 40 ------- 2 2.0 0.0 10 29
r 0.343376 0 1 tcp 1040 ------- 2 0.0 2.0 19 30
+ 0.343376 1 2 tcp 1040 ------- 2 0.0 2.0 19 30
r 0.34504 0 1 tcp 1040 ------- 2 0.0 2.0 20 31
+ 0.34504 1 2 tcp 1040 ------- 2 0.0 2.0 20 31
- 0.347568 1 2 tcp 1040 ------- 2 0.0 2.0 14 22
r 0.348352 1 0 ack 40 ------- 2 2.0 0.0 10 29
+ 0.348352 0 1 tcp 1040 ------- 2 0.0 2.0 21 33
- 0.348352 0 1 tcp 1040 ------- 2 0.0 2.0 21 33
+ 0.348352 0 1 tcp 1040 ------- 2 0.0 2.0 22 34
- 0.350016 0 1 tcp 1040 ------- 2 0.0 2.0 22 34
r 0.350928 1 2 tcp 1040 ------- 2 0.0 2.0 12 19
+ 0.350928 2 1 ack 40 ------- 2 2.0 0.0 12 35
- 0.350928 2 1 ack 40 ------- 2 2.0 0.0 12 35
r 0.354928 2 1 ack 40 ------- 2 2.0 0.0 11 32
+ 0.354928 1 0 ack 40 ------- 2 2.0 0.0 11 32
- 0.354928 1 0 ack 40 ------- 2 2.0 0.0 11 32
r 0.360016 0 1 tcp 1040 ------- 2 0.0 2.0 21 33
+ 0.360016 1 2 tcp 1040 ------- 2 0.0 2.0 21 33
r 0.36168 0 1 tcp 1040 ------- 2 0.0 2.0 22 34
+ 0.36168 1 2 tcp 1040 ------- 2 0.0 2.0 22 34
- 0.364208 1 2 tcp 1040 ------- 2 0.0 2.0 15 24
r 0.364992 1 0 ack 40 ------- 2 2.0 0.0 11 32
+ 0.364992 0 1 tcp 1040 ------- 2 0.0 2.0 23 36
- 0.364992 0 1 tcp 1040 ------- 2 0.0 2.0 23 36
+ 0.364992 0 1 tcp 1040 ------- 2 0.0 2.0 24 37
- 0.366656 0 1 tcp 1040 ------- 2 0.0 2.0 24 37
r 0.367568 1 2 tcp 1040 ------- 2 0.0 2.0 13 21
+ 0.367568 2 1 ack 40 ------- 2 2.0 0.0 13 38
- 0.367568 2 1 ack 40 ------- 2 2.0 0.0 13 38
r 0.371568 2 1 ack 40 ------- 2 2.0 0.0 12 35
+ 0.371568 1 0 ack 40 ------- 2 2.0 0.0 12 35
- 0.371568 1 0 ack 40 ------- 2 2.0 0.0 12 35
r 0.376656 0 1 tcp 1040 ------- 2 0.0 2.0 23 36
+ 0.376656 1 2 tcp 1040 ------- 2 0.0 2.0 23 36
r 0.37832 0 1 tcp 1040 ------- 2 0.0 2.0 24 37
+ 0.37832 1 2 tcp 1040 ------- 2 0.0 2.0 24 37
- 0.380848 1 2 tcp 1040 ------- 2 0.0 2.0 16 25
r 0.381632 1 0 ack 40 ------- 2 2.0 0.0 12 35
+ 0.381632 0 1 tcp 1040 ------- 2 0.0 2.0 25 39
- 0.381632 0 1 tcp 1040 ------- 2 0.0 2.0 25 39
+ 0.381632 0 1 tcp 1040 ------- 2 0.0 2.0 26 40
- 0.383296 0 1 tcp 1040 ------- 2 0.0 2.0 26 40
r 0.384208 1 2 tcp 1040 ------- 2 0.0 2.0 14 22
+ 0.384208 2 1 ack 40 ------- 2 2.0 0.0 14 41
- 0.384208 2 1 ack 40 ------- 2 2.0 0.0 14 41
r 0.388208 2 1 ack 40 ------- 2 2.0 0.0 13 38
+ 0.388208 1 0 ack 40 ------- 2 2.0 0.0 13 38
- 0.388208 1 0 ack 40 ------- 2 2.0 0.0 13 38
r 0.393296 0 1 tcp 1040 ------- 2 0.0 2.0 25 39
+ 0.393296 1 2 tcp 1040 ------- 2 0.0 2.0 25 39
r 0.39496 0 1 tcp 1040 ------- 2 0.0 2.0 26 40
+ 0.39496 1 2 tcp 1040 ------- 2 0.0 2.0 26 40
d 0.39496 1 2 tcp 1040 ------- 2 0.0 2.0 26 40
- 0.397488 1 2 tcp 1040 ------- 2 0.0 2.0 17 27
r 0.398272 1 0 ack 40 ------- 2 2.0 0.0 13 38
+ 0.398272 0 1 tcp 1040 ------- 2 0.0 2.0 27 42
- 0.398272 0 1 tcp 1040 ------- 2 0.0 2.0 27 42
+ 0.398272 0 1 tcp 1040 ------- 2 0.0 2.0 28 43
- 0.399936 0 1 tcp 1040 ------- 2 0.0 2.0 28 43
r 0.400848 1 2 tcp 1040 ------- 2 0.0 2.0 15 24
+ 0.400848 2 1 ack 40 ------- 2 2.0 0.0 15 44
- 0.400848 2 1 ack 40 ------- 2 2.0 0.0 15 44
r 0.404848 2 1 ack 40 ------- 2 2.0 0.0 14 41
+ 0.404848 1 0 ack 40 ------- 2 2.0 0.0 14 41
- 0.404848 1 0 ack 40 ------- 2 2.0 0.0 14 41
r 0.409936 0 1 tcp 1040 ------- 2 0.0 2.0 27 42
+ 0.409936 1 2 tcp 1040 ------- 2 0.0 2.0 27 42
r 0.4116 0 1 tcp 1040 ------- 2 0.0 2.0 28 43
+ 0.4116 1 2 tcp 1040 ------- 2 0.0 2.0 28 43
d 0.4116 1 2 tcp 1040 ------- 2 0.0 2.0 28 43
- 0.414128 1 2 tcp 1040 ------- 2 0.0 2.0 18 28
r 0.414912 1 0 ack 40 ------- 2 2.0 0.0 14 41
+ 0.414912 0 1 tcp 1040 ------- 2 0.0 2.0 29 45
- 0.414912 0 1 tcp 1040 ------- 2 0.0 2.0 29 45
+ 0.414912 0 1 tcp 1040 ------- 2 0.0 2.0 30 46
- 0.416576 0 1 tcp 1040 ------- 2 0.0 2.0 30 46
r 0.417488 1 2 tcp 1040 ------- 2 0.0 2.0 16 25
+ 0.417488 2 1 ack 40 ------- 2 2.0 0.0 16 47
- 0.417488 2 1 ack 40 ------- 2 2.0 0.0 16 47
r 0.421488 2 1 ack 40 ------- 2 2.0 0.0 15 44
+ 0.421488 1 0 ack 40 ------- 2 2.0 0.0 15 44
- 0.421488 1 0 ack 40 ------- 2 2.0 0.0 15 44
r 0.426576 0 1 tcp 1040 ------- 2 0.0 2.0 29 45
+ 0.426576 1 2 tcp 1040 ------- 2 0.0 2.0 29 45
r 0.42824 0 1 tcp 1040 ------- 2 0.0 2.0 30 46
+ 0.42824 1 2 tcp 1040 ------- 2 0.0 2.0 30 46
d 0.42824 1 2 tcp 1040 ------- 2 0.0 2.0 30 46
- 0.430768 1 2 tcp 1040 ------- 2 0.0 2.0 19 30
r 0.431552 1 0 ack 40 ------- 2 2.0 0.0 15 44
+ 0.431552 0 1 tcp 1040 ------- 2 0.0 2.0 31 48
- 0.431552 0 1 tcp 1040 ------- 2 0.0 2.0 31 48
+ 0.431552 0 1 tcp 1040 ------- 2 0.0 2.0 32 49
- 0.433216 0 1 tcp 1040 ------- 2 0.0 2.0 32 49
r 0.434128 1 2 tcp 1040 ------- 2 0.0 2.0 17 27
+ 0.434128 2 1 ack 40 ------- 2 2.0 0.0 17 50
- 0.434128 2 1 ack 40 ------- 2 2.0 0.0 17 50
r 0.438128 2 1 ack 40 ------- 2 2.0 0.0 16 47
+ 0.438128 1 0 ack 40 ------- 2 2.0 0.0 16 47
- 0.438128 1 0 ack 40 ------- 2 2.0 0.0 16 47
r 0.443216 0 1 tcp 1040 ------- 2 0.0 2.0 31 48
+ 0.443216 1 2 tcp 1040 ------- 2 0.0 2.0 31 48
r 0.44488 0 1 tcp 1040 ------- 2 0.0 2.0 32 49
+ 0.44488 1 2 tcp 1040 ------- 2 0.0 2.0 32 49
d 0.44488 1 2 tcp 1040 ------- 2 0.0 2.0 32 49
- 0.447408 1 2 tcp 1040 ------- 2 0.0 2.0 20 31
r 0.448192 1 0 ack 40 ------- 2 2.0 0.0 16 47
+ 0.448192 0 1 tcp 1040 ------- 2 0.0 2.0 33 51
- 0.448192 0 1 tcp 1040 ------- 2 0.0 2.0 33 51
+ 0.448192 0 1 tcp 1040 ------- 2 0.0 2.0 34 52
- 0.449856 0 1 tcp 1040 ------- 2 0.0 2.0 34 52
r 0.450768 1 2 tcp 1040 ------- 2 0.0 2.0 18 28
+ 0.450768 2 1 ack 40 ------- 2 2.0 0.0 18 53
- 0.450768 2 1 ack 40 ------- 2 2.0 0.0 18 53
r 0.454768 2 1 ack 40 ------- 2 2.0 0.0 17 50
+ 0.454768 1 0 ack 40 ------- 2 2.0 0.0 17 50
- 0.454768 1 0 ack 40 ------- 2 2.0 0.0 17 50
r 0.459856 0 1 tcp 1040 ------- 2 0.0 2.0 33 51
+ 0.459856 1 2 tcp 1040 ------- 2 0.0 2.0 33 51
r 0.46152 0 1 tcp 1040 ------- 2 0.0 2.0 34 52
+ 0.46152 1 2 tcp 1040 ------- 2 0.0 2.0 34 52
d 0.46152 1 2 tcp 1040 ------- 2 0.0 2.0 34 52
- 0.464048 1 2 tcp 1040 ------- 2 0.0 2.0 21 33
r 0.464832 1 0 ack 40 ------- 2 2.0 0.0 17 50
+ 0.464832 0 1 tcp 1040 ------- 2 0.0 2.0 35 54
- 0.464832 0 1 tcp 1040 ------- 2 0.0 2.0 35 54
+ 0.464832 0 1 tcp 1040 ------- 2 0.0 2.0 36 55
- 0.466496 0 1 tcp 1040 ------- 2 0.0 2.0 36 55
r 0.467408 1 2 tcp 1040 ------- 2 0.0 2.0 19 30
+ 0.467408 2 1 ack 40 ------- 2 2.0 0.0 19 56
- 0.467408 2 1 ack 40 ------- 2 2.0 0.0 19 56
r 0.471408 2 1 ack 40 ------- 2 2.0 0.0 18 53
+ 0.471408 1 0 ack 40 ------- 2 2.0 0.0 18 53
- 0.471408 1 0 ack 40 ------- 2 2.0 0.0 18 53
r 0.476496 0 1 tcp 1040 ------- 2 0.0 2.0 35 54
+ 0.476496 1 2 tcp 1040 ------- 2 0.0 2.0 35 54
r 0.47816 0 1 tcp 1040 ------- 2 0.0 2.0 36 55
+ 0.47816 1 2 tcp 1040 ------- 2 0.0 2.0 36 55
d 0.47816 1 2 tcp 1040 ------- 2 0.0 2.0 36 55
- 0.480688 1 2 tcp 1040 ------- 2 0.0 2.0 22 34
r 0.481472 1 0 ack 40 ------- 2 2.0 0.0 18 53
+ 0.481472 0 1 tcp 1040 ------- 2 0.0 2.0 37 57
- 0.481472 0 1 tcp 1040 ------- 2 0.0 2.0 37 57
+ 0.481472 0 1 tcp 1040 ------- 2 0.0 2.0 38 58
- 0.483136 0 1 tcp 1040 ------- 2 0.0 2.0 38 58
r 0.484048 1 2 tcp 1040 ------- 2 0.0 2.0 20 31
+ 0.484048 2 1 ack 40 ------- 2 2.0 0.0 20 59
- 0.484048 2 1 ack 40 ------- 2 2.0 0.0 20 59
r 0.488048 2 1 ack 40 ------- 2 2.0 0.0 19 56
+ 0.488048 1 0 ack 40 ------- 2 2.0 0.0 19 56
- 0.488048 1 0 ack 40 ------- 2 2.0 0.0 19 56
r 0.493136 0 1 tcp 1040 ------- 2 0.0 2.0 37 57
+ 0.493136 1 2 tcp 1040 ------- 2 0.0 2.0 37 57
r 0.4948 0 1 tcp 1040 ------- 2 0.0 2.0 38 58
+ 0.4948 1 2 tcp 1040 ------- 2 0.0 2.0 38 58
d 0.4948 1 2 tcp 1040 ------- 2 0.0 2.0 38 58
- 0.497328 1 2 tcp 1040 ------- 2 0.0 2.0 23 36
r 0.498112 1 0 ack 40 ------- 2 2.0 0.0 19 56
+ 0.498112 0 1 tcp 1040 ------- 2 0.0 2.0 39 60
- 0.498112 0 1 tcp 1040 ------- 2 0.0 2.0 39 60
+ 0.5 3 1 tcp 40 ------- 1 3.0 4.0 0 61
- 0.5 3 1 tcp 40 ------- 1 3.0 4.0 0 61
r 0.500688 1 2 tcp 1040 ------- 2 0.0 2.0 21 33
+ 0.500688 2 1 ack 40 ------- 2 2.0 0.0 21 62
- 0.500688 2 1 ack 40 ------- 2 2.0 0.0 21 62
r 0.504688 2 1 ack 40 ------- 2 2.0 0.0 20 59
+ 0.504688 1 0 ack 40 ------- 2 2.0 0.0 20 59
- 0.504688 1 0 ack 40 ------- 2 2.0 0.0 20 59
r 0.509776 0 1 tcp 1040 ------- 2 0.0 2.0 39 60
+ 0.509776 1 2 tcp 1040 ------- 2 0.0 2.0 39 60
r 0.510064 3 1 tcp 40 ------- 1 3.0 4.0 0 61
+ 0.510064 1 4 tcp 40 ------- 1 3.0 4.0 0 61
- 0.510064 1 4 tcp 40 ------- 1 3.0 4.0 0 61
- 0.513968 1 2 tcp 1040 ------- 2 0.0 2.0 24 37
r 0.514752 1 0 ack 40 ------- 2 2.0 0.0 20 59
+ 0.514752 0 1 tcp 1040 ------- 2 0.0 2.0 40 63
- 0.514752 0 1 tcp 1040 ------- 2 0.0 2.0 40 63
r 0.517328 1 2 tcp 1040 ------- 2 0.0 2.0 22 34
+ 0.517328 2 1 ack 40 ------- 2 2.0 0.0 22 64
- 0.517328 2 1 ack 40 ------- 2 2.0 0.0 22 64
r 0.521328 2 1 ack 40 ------- 2 2.0 0.0 21 62
+ 0.521328 1 0 ack 40 ------- 2 2.0 0.0 21 62
- 0.521328 1 0 ack 40 ------- 2 2.0 0.0 21 62
r 0.526416 0 1 tcp 1040 ------- 2 0.0 2.0 40 63
+ 0.526416 1 2 tcp 1040 ------- 2 0.0 2.0 40 63
- 0.530608 1 2 tcp 1040 ------- 2 0.0 2.0 25 39
r 0.530704 1 4 tcp 40 ------- 1 3.0 4.0 0 61
+ 0.530704 4 1 ack 40 ------- 1 4.0 3.0 0 65
- 0.530704 4 1 ack 40 ------- 1 4.0 3.0 0 65
r 0.531392 1 0 ack 40 ------- 2 2.0 0.0 21 62
+ 0.531392 0 1 tcp 1040 ------- 2 0.0 2.0 41 66
- 0.531392 0 1 tcp 1040 ------- 2 0.0 2.0 41 66
r 0.533968 1 2 tcp 1040 ------- 2 0.0 2.0 23 36
+ 0.533968 2 1 ack 40 ------- 2 2.0 0.0 23 67
- 0.533968 2 1 ack 40 ------- 2 2.0 0.0 23 67
r 0.537968 2 1 ack 40 ------- 2 2.0 0.0 22 64
+ 0.537968 1 0 ack 40 ------- 2 2.0 0.0 22 64
- 0.537968 1 0 ack 40 ------- 2 2.0 0.0 22 64
r 0.543056 0 1 tcp 1040 ------- 2 0.0 2.0 41 66
+ 0.543056 1 2 tcp 1040 ------- 2 0.0 2.0 41 66
- 0.547248 1 2 tcp 1040 ------- 2 0.0 2.0 27 42
r 0.548032 1 0 ack 40 ------- 2 2.0 0.0 22 64
+ 0.548032 0 1 tcp 1040 ------- 2 0.0 2.0 42 68
- 0.548032 0 1 tcp 1040 ------- 2 0.0 2.0 42 68
r 0.550608 1 2 tcp 1040 ------- 2 0.0 2.0 24 37
+ 0.550608 2 1 ack 40 ------- 2 2.0 0.0 24 69
- 0.550608 2 1 ack 40 ------- 2 2.0 0.0 24 69
r 0.551344 4 1 ack 40 ------- 1 4.0 3.0 0 65
+ 0.551344 1 3 ack 40 ------- 1 4.0 3.0 0 65
- 0.551344 1 3 ack 40 ------- 1 4.0 3.0 0 65
r 0.554608 2 1 ack 40 ------- 2 2.0 0.0 23 67
+ 0.554608 1 0 ack 40 ------- 2 2.0 0.0 23 67
- 0.554608 1 0 ack 40 ------- 2 2.0 0.0 23 67
r 0.559696 0 1 tcp 1040 ------- 2 0.0 2.0 42 68
+ 0.559696 1 2 tcp 1040 ------- 2 0.0 2.0 42 68
r 0.561408 1 3 ack 40 ------- 1 4.0 3.0 0 65
+ 0.561408 3 1 tcp 1040 ------- 1 3.0 4.0 1 70
- 0.561408 3 1 tcp 1040 ------- 1 3.0 4.0 1 70
+ 0.561408 3 1 tcp 1040 ------- 1 3.0 4.0 2 71
- 0.563072 3 1 tcp 1040 ------- 1 3.0 4.0 2 71
- 0.563888 1 2 tcp 1040 ------- 2 0.0 2.0 29 45
r 0.564672 1 0 ack 40 ------- 2 2.0 0.0 23 67
+ 0.564672 0 1 tcp 1040 ------- 2 0.0 2.0 43 72
- 0.564672 0 1 tcp 1040 ------- 2 0.0 2.0 43 72
r 0.567248 1 2 tcp 1040 ------- 2 0.0 2.0 25 39
+ 0.567248 2 1 ack 40 ------- 2 2.0 0.0 25 73
- 0.567248 2 1 ack 40 ------- 2 2.0 0.0 25 73
r 0.571248 2 1 ack 40 ------- 2 2.0 0.0 24 69
+ 0.571248 1 0 ack 40 ------- 2 2.0 0.0 24 69
- 0.571248 1 0 ack 40 ------- 2 2.0 0.0 24 69
r 0.573072 3 1 tcp 1040 ------- 1 3.0 4.0 1 70
+ 0.573072 1 4 tcp 1040 ------- 1 3.0 4.0 1 70
- 0.573072 1 4 tcp 1040 ------- 1 3.0 4.0 1 70
r 0.574736 3 1 tcp 1040 ------- 1 3.0 4.0 2 71
+ 0.574736 1 4 tcp 1040 ------- 1 3.0 4.0 2 71
r 0.576336 0 1 tcp 1040 ------- 2 0.0 2.0 43 72
+ 0.576336 1 2 tcp 1040 ------- 2 0.0 2.0 43 72
- 0.580528 1 2 tcp 1040 ------- 2 0.0 2.0 31 48
r 0.581312 1 0 ack 40 ------- 2 2.0 0.0 24 69
+ 0.581312 0 1 tcp 1040 ------- 2 0.0 2.0 44 74
- 0.581312 0 1 tcp 1040 ------- 2 0.0 2.0 44 74
r 0.583888 1 2 tcp 1040 ------- 2 0.0 2.0 27 42
+ 0.583888 2 1 ack 40 ------- 2 2.0 0.0 25 75
- 0.583888 2 1 ack 40 ------- 2 2.0 0.0 25 75
r 0.587888 2 1 ack 40 ------- 2 2.0 0.0 25 73
+ 0.587888 1 0 ack 40 ------- 2 2.0 0.0 25 73
- 0.587888 1 0 ack 40 ------- 2 2.0 0.0 25 73
- 0.589712 1 4 tcp 1040 ------- 1 3.0 4.0 2 71
r 0.592976 0 1 tcp 1040 ------- 2 0.0 2.0 44 74
+ 0.592976 1 2 tcp 1040 ------- 2 0.0 2.0 44 74
- 0.597168 1 2 tcp 1040 ------- 2 0.0 2.0 33 51
r 0.597952 1 0 ack 40 ------- 2 2.0 0.0 25 73
+ 0.597952 0 1 tcp 1040 ------- 2 0.0 2.0 45 76
- 0.597952 0 1 tcp 1040 ------- 2 0.0 2.0 45 76
r 0.600528 1 2 tcp 1040 ------- 2 0.0 2.0 29 45
+ 0.600528 2 1 ack 40 ------- 2 2.0 0.0 25 77
- 0.600528 2 1 ack 40 ------- 2 2.0 0.0 25 77
r 0.604528 2 1 ack 40 ------- 2 2.0 0.0 25 75
+ 0.604528 1 0 ack 40 ------- 2 2.0 0.0 25 75
- 0.604528 1 0 ack 40 ------- 2 2.0 0.0 25 75
r 0.609616 0 1 tcp 1040 ------- 2 0.0 2.0 45 76
+ 0.609616 1 2 tcp 1040 ------- 2 0.0 2.0 45 76
r 0.609712 1 4 tcp 1040 ------- 1 3.0 4.0 1 70
+ 0.609712 4 1 ack 40 ------- 1 4.0 3.0 1 78
- 0.609712 4 1 ack 40 ------- 1 4.0 3.0 1 78
- 0.613808 1 2 tcp 1040 ------- 2 0.0 2.0 35 54
r 0.614592 1 0 ack 40 ------- 2 2.0 0.0 25 75
r 0.617168 1 2 tcp 1040 ------- 2 0.0 2.0 31 48
+ 0.617168 2 1 ack 40 ------- 2 2.0 0.0 25 79
- 0.617168 2 1 ack 40 ------- 2 2.0 0.0 25 79
r 0.621168 2 1 ack 40 ------- 2 2.0 0.0 25 77
+ 0.621168 1 0 ack 40 ------- 2 2.0 0.0 25 77
- 0.621168 1 0 ack 40 ------- 2 2.0 0.0 25 77
r 0.626352 1 4 tcp 1040 ------- 1 3.0 4.0 2 71
+ 0.626352 4 1 ack 40 ------- 1 4.0 3.0 2 80
- 0.626352 4 1 ack 40 ------- 1 4.0 3.0 2 80
r 0.630352 4 1 ack 40 ------- 1 4.0 3.0 1 78
+ 0.630352 1 3 ack 40 ------- 1 4.0 3.0 1 78
- 0.630352 1 3 ack 40 ------- 1 4.0 3.0 1 78
- 0.630448 1 2 tcp 1040 ------- 2 0.0 2.0 37 57
r 0.631232 1 0 ack 40 ------- 2 2.0 0.0 25 77
r 0.633808 1 2 tcp 1040 ------- 2 0.0 2.0 33 51
+ 0.633808 2 1 ack 40 ------- 2 2.0 0.0 25 81
- 0.633808 2 1 ack 40 ------- 2 2.0 0.0 25 81
r 0.637808 2 1 ack 40 ------- 2 2.0 0.0 25 79
+ 0.637808 1 0 ack 40 ------- 2 2.0 0.0 25 79
- 0.637808 1 0 ack 40 ------- 2 2.0 0.0 25 79
r 0.640416 1 3 ack 40 ------- 1 4.0 3.0 1 78
+ 0.640416 3 1 tcp 1040 ------- 1 3.0 4.0 3 82
- 0.640416 3 1 tcp 1040 ------- 1 3.0 4.0 3 82
+ 0.640416 3 1 tcp 1040 ------- 1 3.0 4.0 4 83
- 0.64208 3 1 tcp 1040 ------- 1 3.0 4.0 4 83
r 0.646992 4 1 ack 40 ------- 1 4.0 3.0 2 80
+ 0.646992 1 3 ack 40 ------- 1 4.0 3.0 2 80
- 0.646992 1 3 ack 40 ------- 1 4.0 3.0 2 80
- 0.647088 1 2 tcp 1040 ------- 2 0.0 2.0 39 60
r 0.647872 1 0 ack 40 ------- 2 2.0 0.0 25 79
+ 0.647872 0 1 tcp 1040 ---A--- 2 0.0 2.0 26 84
- 0.647872 0 1 tcp 1040 ---A--- 2 0.0 2.0 26 84
r 0.650448 1 2 tcp 1040 ------- 2 0.0 2.0 35 54
+ 0.650448 2 1 ack 40 ------- 2 2.0 0.0 25 85
- 0.650448 2 1 ack 40 ------- 2 2.0 0.0 25 85
r 0.65208 3 1 tcp 1040 ------- 1 3.0 4.0 3 82
+ 0.65208 1 4 tcp 1040 ------- 1 3.0 4.0 3 82
- 0.65208 1 4 tcp 1040 ------- 1 3.0 4.0 3 82
r 0.653744 3 1 tcp 1040 ------- 1 3.0 4.0 4 83
+ 0.653744 1 4 tcp 1040 ------- 1 3.0 4.0 4 83
r 0.654448 2 1 ack 40 ------- 2 2.0 0.0 25 81
+ 0.654448 1 0 ack 40 ------- 2 2.0 0.0 25 81
- 0.654448 1 0 ack 40 ------- 2 2.0 0.0 25 81
r 0.657056 1 3 ack 40 ------- 1 4.0 3.0 2 80
+ 0.657056 3 1 tcp 1040 ------- 1 3.0 4.0 5 86
- 0.657056 3 1 tcp 1040 ------- 1 3.0 4.0 5 86
+ 0.657056 3 1 tcp 1040 ------- 1 3.0 4.0 6 87
- 0.65872 3 1 tcp 1040 ------- 1 3.0 4.0 6 87
r 0.659536 0 1 tcp 1040 ---A--- 2 0.0 2.0 26 84
+ 0.659536 1 2 tcp 1040 ---A--- 2 0.0 2.0 26 84
- 0.663728 1 2 tcp 1040 ------- 2 0.0 2.0 40 63
r 0.664512 1 0 ack 40 ------- 2 2.0 0.0 25 81
r 0.667088 1 2 tcp 1040 ------- 2 0.0 2.0 37 57
+ 0.667088 2 1 ack 40 ------- 2 2.0 0.0 25 88
- 0.667088 2 1 ack 40 ------- 2 2.0 0.0 25 88
- 0.66872 1 4 tcp 1040 ------- 1 3.0 4.0 4 83
r 0.66872 3 1 tcp 1040 ------- 1 3.0 4.0 5 86
+ 0.66872 1 4 tcp 1040 ------- 1 3.0 4.0 5 86
r 0.670384 3 1 tcp 1040 ------- 1 3.0 4.0 6 87
+ 0.670384 1 4 tcp 1040 ------- 1 3.0 4.0 6 87
r 0.671088 2 1 ack 40 ------- 2 2.0 0.0 25 85
+ 0.671088 1 0 ack 40 ------- 2 2.0 0.0 25 85
- 0.671088 1 0 ack 40 ------- 2 2.0 0.0 25 85
- 0.680368 1 2 tcp 1040 ------- 2 0.0 2.0 41 66
r 0.681152 1 0 ack 40 ------- 2 2.0 0.0 25 85
r 0.683728 1 2 tcp 1040 ------- 2 0.0 2.0 39 60
+ 0.683728 2 1 ack 40 ------- 2 2.0 0.0 25 89
- 0.683728 2 1 ack 40 ------- 2 2.0 0.0 25 89
- 0.68536 1 4 tcp 1040 ------- 1 3.0 4.0 5 86
r 0.687728 2 1 ack 40 ------- 2 2.0 0.0 25 88
+ 0.687728 1 0 ack 40 ------- 2 2.0 0.0 25 88
- 0.687728 1 0 ack 40 ------- 2 2.0 0.0 25 88
r 0.68872 1 4 tcp 1040 ------- 1 3.0 4.0 3 82
+ 0.68872 4 1 ack 40 ------- 1 4.0 3.0 3 90
- 0.68872 4 1 ack 40 ------- 1 4.0 3.0 3 90
- 0.697008 1 2 tcp 1040 ------- 2 0.0 2.0 42 68
r 0.697792 1 0 ack 40 ------- 2 2.0 0.0 25 88
r 0.700368 1 2 tcp 1040 ------- 2 0.0 2.0 40 63
+ 0.700368 2 1 ack 40 ------- 2 2.0 0.0 25 91
- 0.700368 2 1 ack 40 ------- 2 2.0 0.0 25 91
- 0.702 1 4 tcp 1040 ------- 1 3.0 4.0 6 87
r 0.704368 2 1 ack 40 ------- 2 2.0 0.0 25 89
+ 0.704368 1 0 ack 40 ------- 2 2.0 0.0 25 89
- 0.704368 1 0 ack 40 ------- 2 2.0 0.0 25 89
r 0.70536 1 4 tcp 1040 ------- 1 3.0 4.0 4 83
+ 0.70536 4 1 ack 40 ------- 1 4.0 3.0 4 92
- 0.70536 4 1 ack 40 ------- 1 4.0 3.0 4 92
r 0.70936 4 1 ack 40 ------- 1 4.0 3.0 3 90
+ 0.70936 1 3 ack 40 ------- 1 4.0 3.0 3 90
- 0.70936 1 3 ack 40 ------- 1 4.0 3.0 3 90
- 0.713648 1 2 tcp 1040 ------- 2 0.0 2.0 43 72
r 0.714432 1 0 ack 40 ------- 2 2.0 0.0 25 89
r 0.717008 1 2 tcp 1040 ------- 2 0.0 2.0 41 66
+ 0.717008 2 1 ack 40 ------- 2 2.0 0.0 25 93
- 0.717008 2 1 ack 40 ------- 2 2.0 0.0 25 93
r 0.719424 1 3 ack 40 ------- 1 4.0 3.0 3 90
+ 0.719424 3 1 tcp 1040 ------- 1 3.0 4.0 7 94
- 0.719424 3 1 tcp 1040 ------- 1 3.0 4.0 7 94
+ 0.719424 3 1 tcp 1040 ------- 1 3.0 4.0 8 95
r 0.721008 2 1 ack 40 ------- 2 2.0 0.0 25 91
+ 0.721008 1 0 ack 40 ------- 2 2.0 0.0 25 91
- 0.721008 1 0 ack 40 ------- 2 2.0 0.0 25 91
- 0.721088 3 1 tcp 1040 ------- 1 3.0 4.0 8 95
r 0.722 1 4 tcp 1040 ------- 1 3.0 4.0 5 86
+ 0.722 4 1 ack 40 ------- 1 4.0 3.0 5 96
- 0.722 4 1 ack 40 ------- 1 4.0 3.0 5 96
r 0.726 4 1 ack 40 ------- 1 4.0 3.0 4 92
+ 0.726 1 3 ack 40 ------- 1 4.0 3.0 4 92
- 0.726 1 3 ack 40 ------- 1 4.0 3.0 4 92
- 0.730288 1 2 tcp 1040 ------- 2 0.0 2.0 44 74
r 0.731072 1 0 ack 40 ------- 2 2.0 0.0 25 91
r 0.731088 3 1 tcp 1040 ------- 1 3.0 4.0 7 94
+ 0.731088 1 4 tcp 1040 ------- 1 3.0 4.0 7 94
- 0.731088 1 4 tcp 1040 ------- 1 3.0 4.0 7 94
r 0.732752 3 1 tcp 1040 ------- 1 3.0 4.0 8 95
+ 0.732752 1 4 tcp 1040 ------- 1 3.0 4.0 8 95
r 0.733648 1 2 tcp 1040 ------- 2 0.0 2.0 42 68
+ 0.733648 2 1 ack 40 ------- 2 2.0 0.0 25 97
- 0.733648 2 1 ack 40 ------- 2 2.0 0.0 25 97
r 0.736064 1 3 ack 40 ------- 1 4.0 3.0 4 92
+ 0.736064 3 1 tcp 1040 ------- 1 3.0 4.0 9 98
- 0.736064 3 1 tcp 1040 ------- 1 3.0 4.0 9 98
+ 0.736064 3 1 tcp 1040 ------- 1 3.0 4.0 10 99
r 0.737648 2 1 ack 40 ------- 2 2.0 0.0 25 93
+ 0.737648 1 0 ack 40 ------- 2 2.0 0.0 25 93
- 0.737648 1 0 ack 40 ------- 2 2.0 0.0 25 93
- 0.737728 3 1 tcp 1040 ------- 1 3.0 4.0 10 99
r 0.73864 1 4 tcp 1040 ------- 1 3.0 4.0 6 87
+ 0.73864 4 1 ack 40 ------- 1 4.0 3.0 6 100
- 0.73864 4 1 ack 40 ------- 1 4.0 3.0 6 100
r 0.74264 4 1 ack 40 ------- 1 4.0 3.0 5 96
+ 0.74264 1 3 ack 40 ------- 1 4.0 3.0 5 96
- 0.74264 1 3 ack 40 ------- 1 4.0 3.0 5 96
- 0.746928 1 2 tcp 1040 ------- 2 0.0 2.0 45 76
r 0.747712 1 0 ack 40 ------- 2 2.0 0.0 25 93
- 0.747728 1 4 tcp 1040 ------- 1 3.0 4.0 8 95
r 0.747728 3 1 tcp 1040 ------- 1 3.0 4.0 9 98
+ 0.747728 1 4 tcp 1040 ------- 1 3.0 4.0 9 98
r 0.749392 3 1 tcp 1040 ------- 1 3.0 4.0 10 99
+ 0.749392 1 4 tcp 1040 ------- 1 3.0 4.0 10 99
r 0.750288 1 2 tcp 1040 ------- 2 0.0 2.0 43 72
+ 0.750288 2 1 ack 40 ------- 2 2.0 0.0 25 101
- 0.750288 2 1 ack 40 ------- 2 2.0 0.0 25 101
r 0.752704 1 3 ack 40 ------- 1 4.0 3.0 5 96
+ 0.752704 3 1 tcp 1040 ------- 1 3.0 4.0 11 102
- 0.752704 3 1 tcp 1040 ------- 1 3.0 4.0 11 102
+ 0.752704 3 1 tcp 1040 ------- 1 3.0 4.0 12 103
r 0.754288 2 1 ack 40 ------- 2 2.0 0.0 25 97
+ 0.754288 1 0 ack 40 ------- 2 2.0 0.0 25 97
- 0.754288 1 0 ack 40 ------- 2 2.0 0.0 25 97
- 0.754368 3 1 tcp 1040 ------- 1 3.0 4.0 12 103
r 0.75928 4 1 ack 40 ------- 1 4.0 3.0 6 100
+ 0.75928 1 3 ack 40 ------- 1 4.0 3.0 6 100
- 0.75928 1 3 ack 40 ------- 1 4.0 3.0 6 100
- 0.763568 1 2 tcp 1040 ---A--- 2 0.0 2.0 26 84
r 0.764352 1 0 ack 40 ------- 2 2.0 0.0 25 97
- 0.764368 1 4 tcp 1040 ------- 1 3.0 4.0 9 98
r 0.764368 3 1 tcp 1040 ------- 1 3.0 4.0 11 102
+ 0.764368 1 4 tcp 1040 ------- 1 3.0 4.0 11 102
r 0.766032 3 1 tcp 1040 ------- 1 3.0 4.0 12 103
+ 0.766032 1 4 tcp 1040 ------- 1 3.0 4.0 12 103
r 0.766928 1 2 tcp 1040 ------- 2 0.0 2.0 44 74
+ 0.766928 2 1 ack 40 ------- 2 2.0 0.0 25 104
- 0.766928 2 1 ack 40 ------- 2 2.0 0.0 25 104
r 0.767728 1 4 tcp 1040 ------- 1 3.0 4.0 7 94
+ 0.767728 4 1 ack 40 ------- 1 4.0 3.0 7 105
- 0.767728 4 1 ack 40 ------- 1 4.0 3.0 7 105
r 0.769344 1 3 ack 40 ------- 1 4.0 3.0 6 100
+ 0.769344 3 1 tcp 1040 ------- 1 3.0 4.0 13 106
- 0.769344 3 1 tcp 1040 ------- 1 3.0 4.0 13 106
+ 0.769344 3 1 tcp 1040 ------- 1 3.0 4.0 14 107
r 0.770928 2 1 ack 40 ------- 2 2.0 0.0 25 101
+ 0.770928 1 0 ack 40 ------- 2 2.0 0.0 25 101
- 0.770928 1 0 ack 40 ------- 2 2.0 0.0 25 101
- 0.771008 3 1 tcp 1040 ------- 1 3.0 4.0 14 107
r 0.780992 1 0 ack 40 ------- 2 2.0 0.0 25 101
- 0.781008 1 4 tcp 1040 ------- 1 3.0 4.0 10 99
r 0.781008 3 1 tcp 1040 ------- 1 3.0 4.0 13 106
+ 0.781008 1 4 tcp 1040 ------- 1 3.0 4.0 13 106
r 0.782672 3 1 tcp 1040 ------- 1 3.0 4.0 14 107
+ 0.782672 1 4 tcp 1040 ------- 1 3.0 4.0 14 107
r 0.783568 1 2 tcp 1040 ------- 2 0.0 2.0 45 76
+ 0.783568 2 1 ack 40 ------- 2 2.0 0.0 25 108
- 0.783568 2 1 ack 40 ------- 2 2.0 0.0 25 108
r 0.784368 1 4 tcp 1040 ------- 1 3.0 4.0 8 95
+ 0.784368 4 1 ack 40 ------- 1 4.0 3.0 8 109
- 0.784368 4 1 ack 40 ------- 1 4.0 3.0 8 109
r 0.787568 2 1 ack 40 ------- 2 2.0 0.0 25 104
+ 0.787568 1 0 ack 40 ------- 2 2.0 0.0 25 104
- 0.787568 1 0 ack 40 ------- 2 2.0 0.0 25 104
r 0.788368 4 1 ack 40 ------- 1 4.0 3.0 7 105
+ 0.788368 1 3 ack 40 ------- 1 4.0 3.0 7 105
- 0.788368 1 3 ack 40 ------- 1 4.0 3.0 7 105
r 0.797632 1 0 ack 40 ------- 2 2.0 0.0 25 104
- 0.797648 1 4 tcp 1040 ------- 1 3.0 4.0 11 102
r 0.798432 1 3 ack 40 ------- 1 4.0 3.0 7 105
+ 0.798432 3 1 tcp 1040 ------- 1 3.0 4.0 15 110
- 0.798432 3 1 tcp 1040 ------- 1 3.0 4.0 15 110
+ 0.798432 3 1 tcp 1040 ------- 1 3.0 4.0 16 111
- 0.800096 3 1 tcp 1040 ------- 1 3.0 4.0 16 111
r 0.800208 1 2 tcp 1040 ---A--- 2 0.0 2.0 26 84
+ 0.800208 2 1 ack 40 ------- 2 2.0 0.0 27 112
- 0.800208 2 1 ack 40 ------- 2 2.0 0.0 27 112
r 0.801008 1 4 tcp 1040 ------- 1 3.0 4.0 9 98
+ 0.801008 4 1 ack 40 ------- 1 4.0 3.0 9 113
- 0.801008 4 1 ack 40 ------- 1 4.0 3.0 9 113